TITLE = "FUNC"
VARIABLES = "X", "F"
ZONE I=21, F=POINT
0.0000000000000e+000 1.0799409464171e+005
5.0000000000000e-003 6.4824983242892e+002
1.0000000000000e-002 6.3343609014439e+002
1.5000000000000e-002 6.1673259141911e+002
2.0000000000000e-002 5.9739094119727e+002
2.5000000000000e-002 5.7556758150667e+002
3.0000000000000e-002 5.5171212385454e+002
3.5000000000000e-002 5.2608590578461e+002
4.0000000000000e-002 4.9863488118840e+002
4.5000000000000e-002 4.6861085795364e+002
5.0000000000000e-002 4.3609959667010e+002
5.5000000000000e-002 4.0204974278006e+002
6.0000000000000e-002 3.6667491529907e+002
6.5000000000000e-002 3.2958178770066e+002
7.0000000000000e-002 2.9209378963043e+002
7.5000000000000e-002 2.5453959193660e+002
8.0000000000000e-002 2.1855118511949e+002
8.5000000000000e-002 1.8526192139084e+002
9.0000000000000e-002 1.5792298812553e+002
9.5000000000000e-002 1.4097444189810e+002
1.0000000000000e-001 1.4096357742164e+002
ZONE I=20, F=POINT
1.0500000000000e-001 1.1236875783957e+002
1.1000000000000e-001 9.3615416863999e+001
1.1500000000000e-001 8.7866086603305e+001
1.2000000000000e-001 8.8656354596485e+001
1.2500000000000e-001 9.2466736589440e+001
1.3000000000000e-001 9.7832910410998e+001
1.3500000000000e-001 1.0315745242996e+002
1.4000000000000e-001 1.0789950483161e+002
1.4500000000000e-001 1.1094411565395e+002
1.5000000000000e-001 1.1196107370446e+002
1.5500000000000e-001 1.1124598135019e+002
1.6000000000000e-001 1.0868349398681e+002
1.6500000000000e-001 1.0381421825864e+002
1.7000000000000e-001 9.7108779119721e+001
1.7500000000000e-001 8.8843139633368e+001
1.8000000000000e-001 7.9735172136732e+001
1.8500000000000e-001 7.0986408165397e+001
1.9000000000000e-001 6.3139283663520e+001
1.9500000000000e-001 5.8007150768141e+001
2.0000000000000e-001 5.8019838458224e+001
ZONE I=20, F=POINT
2.0500000000000e-001 6.3451267982407e+001
2.1000000000000e-001 6.3256082220613e+001
2.1500000000000e-001 6.8743545446539e+001
2.2000000000000e-001 7.7142145187324e+001
2.2500000000000e-001 8.5290799645402e+001
2.3000000000000e-001 9.3171949353393e+001
2.3500000000000e-001 1.0009120394885e+002
2.4000000000000e-001 1.0483300023057e+002
2.4500000000000e-001 1.0779979695066e+002
2.5000000000000e-001 1.0804322433967e+002
2.5500000000000e-001 1.0669677156465e+002
2.6000000000000e-001 1.0362614732022e+002
2.6500000000000e-001 9.8716158612883e+001
2.7000000000000e-001 9.2384426918852e+001
2.7500000000000e-001 8.4807616319115e+001
2.8000000000000e-001 7.6501296766820e+001
2.8500000000000e-001 6.7861800949551e+001
2.9000000000000e-001 5.9713009303070e+001
2.9500000000000e-001 5.4483303369877e+001
3.0000000000000e-001 5.4520078601093e+001
ZONE I=20, F=POINT
3.0500000000000e-001 6.6371047731747e+001
3.1000000000000e-001 6.8667579034338e+001
3.1500000000000e-001 7.6258919856798e+001
3.2000000000000e-001 8.6001359738602e+001
3.2500000000000e-001 9.5581343649119e+001
3.3000000000000e-001 1.0440801579820e+002
3.3500000000000e-001 1.1199966577629e+002
3.4000000000000e-001 1.1734091510428e+002
3.4500000000000e-001 1.2004918281298e+002
3.5000000000000e-001 1.2107649025089e+002
3.5500000000000e-001 1.1943099624248e+002
3.6000000000000e-001 1.1550080329931e+002
3.6500000000000e-001 1.0969363692398e+002
3.7000000000000e-001 1.0178282735880e+002
3.7500000000000e-001 9.2924403703548e+001
3.8000000000000e-001 8.3780889975472e+001
3.8500000000000e-001 7.4339916052756e+001
3.9000000000000e-001 6.6564762457916e+001
3.9500000000000e-001 6.1395695775526e+001
4.0000000000000e-001 6.1410275465769e+001
ZONE I=20, F=POINT
4.0500000000000e-001 6.8164240762638e+001
4.1000000000000e-001 6.8099392176268e+001
4.1500000000000e-001 7.3536784986380e+001
4.2000000000000e-001 8.2336315575017e+001
4.2500000000000e-001 9.1532597979061e+001
4.3000000000000e-001 1.0050910100375e+002
4.3500000000000e-001 1.0872006448571e+002
4.4000000000000e-001 1.1450223726677e+002
4.4500000000000e-001 1.1764301815154e+002
4.5000000000000e-001 1.1861721410976e+002
4.5500000000000e-001 1.1703841192569e+002
4.6000000000000e-001 1.1289885594628e+002
4.6500000000000e-001 1.0733472320894e+002
4.7000000000000e-001 1.0058451686268e+002
4.7500000000000e-001 9.2212883319975e+001
4.8000000000000e-001 8.2740874968511e+001
4.8500000000000e-001 7.3287412926041e+001
4.9000000000000e-001 6.4652464490456e+001
4.9500000000000e-001 5.9084420963642e+001
5.0000000000000e-001 5.9103980608870e+001
ZONE I=20, F=POINT
5.0500000000000e-001 6.6295949601075e+001
5.1000000000000e-001 6.7139637993094e+001
5.1500000000000e-001 7.4075036529002e+001
5.2000000000000e-001 8.3157338944734e+001
5.2500000000000e-001 9.1985857409882e+001
5.3000000000000e-001 1.0038430220069e+002
5.3500000000000e-001 1.0664248952722e+002
5.4000000000000e-001 1.1146225208461e+002
5.4500000000000e-001 1.1476740198296e+002
5.5000000000000e-001 1.1619628784425e+002
5.5500000000000e-001 1.1526693696548e+002
5.6000000000000e-001 1.1178222852738e+002
5.6500000000000e-001 1.0677662459922e+002
5.7000000000000e-001 1.0020438351994e+002
5.7500000000000e-001 9.2230276909856e+001
5.8000000000000e-001 8.3111168413222e+001
5.8500000000000e-001 7.3661889932388e+001
5.9000000000000e-001 6.5923787690813e+001
5.9500000000000e-001 6.0801694579093e+001
6.0000000000000e-001 6.0813269065975e+001
ZONE I=20, F=POINT
6.0500000000000e-001 6.8260939963984e+001
6.1000000000000e-001 6.8760968807800e+001
6.1500000000000e-001 7.4717421269749e+001
6.2000000000000e-001 8.2867152536226e+001
6.2500000000000e-001 9.1848898821137e+001
6.3000000000000e-001 9.9587759142161e+001
6.3500000000000e-001 1.0533429431796e+002
6.4000000000000e-001 1.0891455827378e+002
6.4500000000000e-001 1.1069778538633e+002
6.5000000000000e-001 1.1093971061241e+002
6.5500000000000e-001 1.0943618321949e+002
6.6000000000000e-001 1.0612537930179e+002
6.6500000000000e-001 1.0145098535104e+002
6.7000000000000e-001 9.5012902733037e+001
6.7500000000000e-001 8.7647915444490e+001
6.8000000000000e-001 7.9163314662470e+001
6.8500000000000e-001 7.0355719652793e+001
6.9000000000000e-001 6.2843156616568e+001
6.9500000000000e-001 5.7890147590991e+001
7.0000000000000e-001 5.7899908987816e+001
ZONE I=20, F=POINT
7.0500000000000e-001 6.3231325325576e+001
7.1000000000000e-001 6.3361030195701e+001
7.1500000000000e-001 6.9590982857110e+001
7.2000000000000e-001 7.7535337484895e+001
7.2500000000000e-001 8.5018032877857e+001
7.3000000000000e-001 9.2214388472560e+001
7.3500000000000e-001 9.7976928543356e+001
7.4000000000000e-001 1.0219081171585e+002
7.4500000000000e-001 1.0486356383818e+002
7.5000000000000e-001 1.0549682677647e+002
7.5500000000000e-001 1.0449004797274e+002
7.6000000000000e-001 1.0163310949230e+002
7.6500000000000e-001 9.7199090493672e+001
7.7000000000000e-001 9.1243687973677e+001
7.7500000000000e-001 8.4348595947432e+001
7.8000000000000e-001 7.6537331111080e+001
7.8500000000000e-001 6.8195574933241e+001
7.9000000000000e-001 6.0970925830265e+001
7.9500000000000e-001 5.6178952248664e+001
8.0000000000000e-001 5.6196457297389e+001
ZONE I=20, F=POINT
8.0500000000000e-001 6.6528055720270e+001
8.1000000000000e-001 6.8847045280202e+001
8.1500000000000e-001 7.6420278382381e+001
8.2000000000000e-001 8.5757126556040e+001
8.2500000000000e-001 9.4890597341969e+001
8.3000000000000e-001 1.0264551812334e+002
8.3500000000000e-001 1.0932170081830e+002
8.4000000000000e-001 1.1354229001380e+002
8.4500000000000e-001 1.1527036301198e+002
8.5000000000000e-001 1.1446256974883e+002
8.5500000000000e-001 1.1194841425332e+002
8.6000000000000e-001 1.0774680284187e+002
8.6500000000000e-001 1.0202420760467e+002
8.7000000000000e-001 9.4515295286084e+001
8.7500000000000e-001 8.6173703546400e+001
8.8000000000000e-001 7.7506870485189e+001
8.8500000000000e-001 6.9273383294378e+001
8.9000000000000e-001 6.2352205246224e+001
8.9500000000000e-001 5.7807441295704e+001
9.0000000000000e-001 5.7926380490481e+001
ZONE I=20, F=POINT
9.0500000000000e-001 1.1252559031930e+002
9.1000000000000e-001 1.1999448747891e+002
9.1500000000000e-001 1.3939955801484e+002
9.2000000000000e-001 1.6431179013793e+002
9.2500000000000e-001 1.9220865741161e+002
9.3000000000000e-001 2.2126133383806e+002
9.3500000000000e-001 2.4934800566676e+002
9.4000000000000e-001 2.7646392944736e+002
9.4500000000000e-001 3.0211058752819e+002
9.5000000000000e-001 3.2542007557487e+002
9.5500000000000e-001 3.4585108528642e+002
9.6000000000000e-001 3.6430227553575e+002
9.6500000000000e-001 3.7984799268652e+002
9.7000000000000e-001 3.9221779883847e+002
9.7500000000000e-001 4.0158637719983e+002
9.8000000000000e-001 4.0825050609218e+002
9.8500000000000e-001 4.1253985130867e+002
9.9000000000000e-001 4.1464461243277e+002
9.9500000000000e-001 4.1461358756854e+002
1.0000000000000e+000 2.2624168326734e+002
