TITLE = "FUNC"
VARIABLES = "X", "F"
ZONE I=1001, F=POINT
0.0000000000000e+000 -1.#IND000000000e+000
1.0000000000000e-003 2.3878325284832e+000
2.0000000000000e-003 2.3887850282289e+000
3.0000000000000e-003 2.3897367538162e+000
4.0000000000000e-003 2.3906877049118e+000
5.0000000000000e-003 2.3916378719679e+000
6.0000000000000e-003 2.3925872563169e+000
7.0000000000000e-003 2.3935358485216e+000
8.0000000000000e-003 2.3944836444745e+000
9.0000000000000e-003 2.3954306398455e+000
1.0000000000000e-002 2.3963768335244e+000
1.1000000000000e-002 2.3973222167406e+000
1.2000000000000e-002 2.3982667876066e+000
1.3000000000000e-002 2.3992105392390e+000
1.4000000000000e-002 2.4001534655316e+000
1.5000000000000e-002 2.4010955668174e+000
1.6000000000000e-002 2.4020368357691e+000
1.7000000000000e-002 2.4029772688339e+000
1.8000000000000e-002 2.4039168551315e+000
1.9000000000000e-002 2.4048555984368e+000
2.0000000000000e-002 2.4057934900901e+000
2.1000000000000e-002 2.4067305274267e+000
2.2000000000000e-002 2.4076667016759e+000
2.3000000000000e-002 2.4086020120606e+000
2.4000000000000e-002 2.4095364511423e+000
2.5000000000000e-002 2.4104700153682e+000
2.6000000000000e-002 2.4114027022959e+000
2.7000000000000e-002 2.4123345043758e+000
2.8000000000000e-002 2.4132654147246e+000
2.9000000000000e-002 2.4141954340084e+000
3.0000000000000e-002 2.4151245551218e+000
3.1000000000000e-002 2.4160527702932e+000
3.2000000000000e-002 2.4169800815210e+000
3.3000000000000e-002 2.4179064751495e+000
3.4000000000000e-002 2.4188319540652e+000
3.5000000000000e-002 2.4197565099415e+000
3.6000000000000e-002 2.4206801371163e+000
3.7000000000000e-002 2.4216028342572e+000
3.8000000000000e-002 2.4225245917053e+000
3.9000000000000e-002 2.4234454105709e+000
4.0000000000000e-002 2.4243652825273e+000
4.1000000000000e-002 2.4252842012462e+000
4.2000000000000e-002 2.4262021623978e+000
4.3000000000000e-002 2.4271191669811e+000
4.4000000000000e-002 2.4280352024508e+000
4.5000000000000e-002 2.4289502695840e+000
4.6000000000000e-002 2.4298643582776e+000
4.7000000000000e-002 2.4307774664223e+000
4.8000000000000e-002 2.4316895927967e+000
4.9000000000000e-002 2.4326007237452e+000
5.0000000000000e-002 2.4335108657070e+000
5.1000000000000e-002 2.4344200009185e+000
5.2000000000000e-002 2.4353281371514e+000
5.3000000000000e-002 2.4362352613050e+000
5.4000000000000e-002 2.4371413686053e+000
5.5000000000000e-002 2.4380464574980e+000
5.6000000000000e-002 2.4389505246525e+000
5.7000000000000e-002 2.4398535576342e+000
5.8000000000000e-002 2.4407555595518e+000
5.9000000000000e-002 2.4416565224117e+000
6.0000000000000e-002 2.4425564384423e+000
6.1000000000000e-002 2.4434553073105e+000
6.2000000000000e-002 2.4443531195795e+000
6.3000000000000e-002 2.4452498741390e+000
6.4000000000000e-002 2.4461455663261e+000
6.5000000000000e-002 2.4470401889243e+000
6.6000000000000e-002 2.4479337349392e+000
6.7000000000000e-002 2.4488262042599e+000
6.8000000000000e-002 2.4497175875604e+000
6.9000000000000e-002 2.4506078851738e+000
7.0000000000000e-002 2.4514970882183e+000
7.1000000000000e-002 2.4523851884783e+000
7.2000000000000e-002 2.4532721902837e+000
7.3000000000000e-002 2.4541580779802e+000
7.4000000000000e-002 2.4550428560088e+000
7.5000000000000e-002 2.4559265130453e+000
7.6000000000000e-002 2.4568090446486e+000
7.7000000000000e-002 2.4576904505969e+000
7.8000000000000e-002 2.4585707215641e+000
7.9000000000000e-002 2.4594498534425e+000
8.0000000000000e-002 2.4603278405699e+000
8.1000000000000e-002 2.4612046788386e+000
8.2000000000000e-002 2.4620803639186e+000
8.3000000000000e-002 2.4629548899258e+000
8.4000000000000e-002 2.4638282514200e+000
8.5000000000000e-002 2.4647004436273e+000
8.6000000000000e-002 2.4655714615518e+000
8.7000000000000e-002 2.4664413018627e+000
8.8000000000000e-002 2.4673099543460e+000
8.9000000000000e-002 2.4681774208890e+000
9.0000000000000e-002 2.4690436907226e+000
9.1000000000000e-002 2.4699087618485e+000
9.2000000000000e-002 2.4707726282713e+000
9.3000000000000e-002 2.4716352873266e+000
9.4000000000000e-002 2.4724967281342e+000
9.5000000000000e-002 2.4733569514712e+000
9.6000000000000e-002 2.4742159484559e+000
9.7000000000000e-002 2.4750737164236e+000
9.8000000000000e-002 2.4759302502675e+000
9.9000000000000e-002 2.4767855428820e+000
1.0000000000000e-001 2.4776395893822e+000
1.0100000000000e-001 2.4784923863264e+000
1.0200000000000e-001 2.4793439279414e+000
1.0300000000000e-001 2.4801942100083e+000
1.0400000000000e-001 2.4810432261990e+000
1.0500000000000e-001 2.4818909706292e+000
1.0600000000000e-001 2.4827374394132e+000
1.0700000000000e-001 2.4835826289982e+000
1.0800000000000e-001 2.4844265290591e+000
1.0900000000000e-001 2.4852691405952e+000
1.1000000000000e-001 2.4861104549467e+000
1.1100000000000e-001 2.4869504693381e+000
1.1200000000000e-001 2.4877891757757e+000
1.1300000000000e-001 2.4886265712620e+000
1.1400000000000e-001 2.4894626491356e+000
1.1500000000000e-001 2.4902974063989e+000
1.1600000000000e-001 2.4911308351694e+000
1.1700000000000e-001 2.4919629343367e+000
1.1800000000000e-001 2.4927936932428e+000
1.1900000000000e-001 2.4936231115547e+000
1.2000000000000e-001 2.4944511832770e+000
1.2100000000000e-001 2.4952778997500e+000
1.2200000000000e-001 2.4961032593085e+000
1.2300000000000e-001 2.4969272577335e+000
1.2400000000000e-001 2.4977498853662e+000
1.2500000000000e-001 2.4985711419845e+000
1.2600000000000e-001 2.4993910193727e+000
1.2700000000000e-001 2.5002095128679e+000
1.2800000000000e-001 2.5010266185843e+000
1.2900000000000e-001 2.5018423297496e+000
1.3000000000000e-001 2.5026566415898e+000
1.3100000000000e-001 2.5034695514403e+000
1.3200000000000e-001 2.5042810501974e+000
1.3300000000000e-001 2.5050911347524e+000
1.3400000000000e-001 2.5058997999983e+000
1.3500000000000e-001 2.5067070421603e+000
1.3600000000000e-001 2.5075128530228e+000
1.3700000000000e-001 2.5083172281448e+000
1.3800000000000e-001 2.5091201641958e+000
1.3900000000000e-001 2.5099216556246e+000
1.4000000000000e-001 2.5107216955478e+000
1.4100000000000e-001 2.5115202809678e+000
1.4200000000000e-001 2.5123174035580e+000
1.4300000000000e-001 2.5131130625411e+000
1.4400000000000e-001 2.5139072512559e+000
1.4500000000000e-001 2.5146999614867e+000
1.4600000000000e-001 2.5154911920122e+000
1.4700000000000e-001 2.5162809363932e+000
1.4800000000000e-001 2.5170691884124e+000
1.4900000000000e-001 2.5178559455163e+000
1.5000000000000e-001 2.5186411961586e+000
1.5100000000000e-001 2.5194249444471e+000
1.5200000000000e-001 2.5202071779473e+000
1.5300000000000e-001 2.5209878961041e+000
1.5400000000000e-001 2.5217670907018e+000
1.5500000000000e-001 2.5225447585209e+000
1.5600000000000e-001 2.5233208928999e+000
1.5700000000000e-001 2.5240954885097e+000
1.5800000000000e-001 2.5248685433521e+000
1.5900000000000e-001 2.5256400487672e+000
1.6000000000000e-001 2.5264100006472e+000
1.6100000000000e-001 2.5271783961056e+000
1.6200000000000e-001 2.5279452257054e+000
1.6300000000000e-001 2.5287104871152e+000
1.6400000000000e-001 2.5294741747839e+000
1.6500000000000e-001 2.5302362843815e+000
1.6600000000000e-001 2.5309968109122e+000
1.6700000000000e-001 2.5317557464932e+000
1.6800000000000e-001 2.5325130885712e+000
1.6900000000000e-001 2.5332688304847e+000
1.7000000000000e-001 2.5340229704574e+000
1.7100000000000e-001 2.5347754990523e+000
1.7200000000000e-001 2.5355264119398e+000
1.7300000000000e-001 2.5362757057890e+000
1.7400000000000e-001 2.5370233761590e+000
1.7500000000000e-001 2.5377694132800e+000
1.7600000000000e-001 2.5385138182621e+000
1.7700000000000e-001 2.5392565816684e+000
1.7800000000000e-001 2.5399977003904e+000
1.7900000000000e-001 2.5407371694319e+000
1.8000000000000e-001 2.5414749817987e+000
1.8100000000000e-001 2.5422111337159e+000
1.8200000000000e-001 2.5429456187442e+000
1.8300000000000e-001 2.5436784363286e+000
1.8400000000000e-001 2.5444095744787e+000
1.8500000000000e-001 2.5451390340825e+000
1.8600000000000e-001 2.5458668073686e+000
1.8700000000000e-001 2.5465928888968e+000
1.8800000000000e-001 2.5473172748924e+000
1.8900000000000e-001 2.5480399606925e+000
1.9000000000000e-001 2.5487609386365e+000
1.9100000000000e-001 2.5494802063930e+000
1.9200000000000e-001 2.5501977568565e+000
1.9300000000000e-001 2.5509135870294e+000
1.9400000000000e-001 2.5516276918047e+000
1.9500000000000e-001 2.5523400623007e+000
1.9600000000000e-001 2.5530506972959e+000
1.9700000000000e-001 2.5537595916836e+000
1.9800000000000e-001 2.5544667404676e+000
1.9900000000000e-001 2.5551721353212e+000
2.0000000000000e-001 2.5558757752453e+000
2.0100000000000e-001 2.5565776536896e+000
2.0200000000000e-001 2.5572777662131e+000
2.0300000000000e-001 2.5579761063765e+000
2.0400000000000e-001 2.5586726702942e+000
2.0500000000000e-001 2.5593674530811e+000
2.0600000000000e-001 2.5600604478537e+000
2.0700000000000e-001 2.5607516535020e+000
2.0800000000000e-001 2.5614410599228e+000
2.0900000000000e-001 2.5621286681154e+000
2.1000000000000e-001 2.5628144677547e+000
2.1100000000000e-001 2.5634984566203e+000
2.1200000000000e-001 2.5641806294940e+000
2.1300000000000e-001 2.5648609806028e+000
2.1400000000000e-001 2.5655395072821e+000
2.1500000000000e-001 2.5662162017603e+000
2.1600000000000e-001 2.5668910599297e+000
2.1700000000000e-001 2.5675640783485e+000
2.1800000000000e-001 2.5682352493561e+000
2.1900000000000e-001 2.5689045711763e+000
2.2000000000000e-001 2.5695720370367e+000
2.2100000000000e-001 2.5702376423853e+000
2.2200000000000e-001 2.5709013818931e+000
2.2300000000000e-001 2.5715632527845e+000
2.2400000000000e-001 2.5722232458447e+000
2.2500000000000e-001 2.5728813612957e+000
2.2600000000000e-001 2.5735375891456e+000
2.2700000000000e-001 2.5741919299493e+000
2.2800000000000e-001 2.5748443756024e+000
2.2900000000000e-001 2.5754949225520e+000
2.3000000000000e-001 2.5761435639149e+000
2.3100000000000e-001 2.5767902961382e+000
2.3200000000000e-001 2.5774351144481e+000
2.3300000000000e-001 2.5780780148477e+000
2.3400000000000e-001 2.5787189924520e+000
2.3500000000000e-001 2.5793580403777e+000
2.3600000000000e-001 2.5799951558492e+000
2.3700000000000e-001 2.5806303346476e+000
2.3800000000000e-001 2.5812635693345e+000
2.3900000000000e-001 2.5818948572454e+000
2.4000000000000e-001 2.5825241936062e+000
2.4100000000000e-001 2.5831515725327e+000
2.4200000000000e-001 2.5837769901393e+000
2.4300000000000e-001 2.5844004395426e+000
2.4400000000000e-001 2.5850219221857e+000
2.4500000000000e-001 2.5856414256342e+000
2.4600000000000e-001 2.5862589485559e+000
2.4700000000000e-001 2.5868744889523e+000
2.4800000000000e-001 2.5874880383858e+000
2.4900000000000e-001 2.5880995911942e+000
2.5000000000000e-001 2.5887091480437e+000
2.5100000000000e-001 2.5893166986091e+000
2.5200000000000e-001 2.5899222425574e+000
2.5300000000000e-001 2.5905257742265e+000
2.5400000000000e-001 2.5911272850676e+000
2.5500000000000e-001 2.5917267754139e+000
2.5600000000000e-001 2.5923242392700e+000
2.5700000000000e-001 2.5929196717511e+000
2.5800000000000e-001 2.5935130668620e+000
2.5900000000000e-001 2.5941044220490e+000
2.6000000000000e-001 2.5946937315391e+000
2.6100000000000e-001 2.5952809914465e+000
2.6200000000000e-001 2.5958661969971e+000
2.6300000000000e-001 2.5964493444164e+000
2.6400000000000e-001 2.5970304272649e+000
2.6500000000000e-001 2.5976094423230e+000
2.6600000000000e-001 2.5981863844837e+000
2.6700000000000e-001 2.5987612507494e+000
2.6800000000000e-001 2.5993340359021e+000
2.6900000000000e-001 2.5999047340575e+000
2.7000000000000e-001 2.6004733421070e+000
2.7100000000000e-001 2.6010398557208e+000
2.7200000000000e-001 2.6016042691257e+000
2.7300000000000e-001 2.6021665803233e+000
2.7400000000000e-001 2.6027267819861e+000
2.7500000000000e-001 2.6032848716717e+000
2.7600000000000e-001 2.6038408440510e+000
2.7700000000000e-001 2.6043946952381e+000
2.7800000000000e-001 2.6049464205702e+000
2.7900000000000e-001 2.6054960162725e+000
2.8000000000000e-001 2.6060434779041e+000
2.8100000000000e-001 2.6065887998028e+000
2.8200000000000e-001 2.6071319798593e+000
2.8300000000000e-001 2.6076730111901e+000
2.8400000000000e-001 2.6082118921300e+000
2.8500000000000e-001 2.6087486159065e+000
2.8600000000000e-001 2.6092831807434e+000
2.8700000000000e-001 2.6098155800902e+000
2.8800000000000e-001 2.6103458108384e+000
2.8900000000000e-001 2.6108738681030e+000
2.9000000000000e-001 2.6113997481092e+000
2.9100000000000e-001 2.6119234466382e+000
2.9200000000000e-001 2.6124449603593e+000
2.9300000000000e-001 2.6129642842765e+000
2.9400000000000e-001 2.6134814132828e+000
2.9500000000000e-001 2.6139963438254e+000
2.9600000000000e-001 2.6145090731289e+000
2.9700000000000e-001 2.6150195953090e+000
2.9800000000000e-001 2.6155279065909e+000
2.9900000000000e-001 2.6160340035331e+000
3.0000000000000e-001 2.6165378826937e+000
3.0100000000000e-001 2.6170395373004e+000
3.0200000000000e-001 2.6175389647998e+000
3.0300000000000e-001 2.6180361617500e+000
3.0400000000000e-001 2.6185311249316e+000
3.0500000000000e-001 2.6190238472390e+000
3.0600000000000e-001 2.6195143276730e+000
3.0700000000000e-001 2.6200025602385e+000
3.0800000000000e-001 2.6204885418268e+000
3.0900000000000e-001 2.6209722683301e+000
3.1000000000000e-001 2.6214537364178e+000
3.1100000000000e-001 2.6219329407606e+000
3.1200000000000e-001 2.6224098783612e+000
3.1300000000000e-001 2.6228845455556e+000
3.1400000000000e-001 2.6233569375700e+000
3.1500000000000e-001 2.6238270508516e+000
3.1600000000000e-001 2.6242948819588e+000
3.1700000000000e-001 2.6247604254515e+000
3.1800000000000e-001 2.6252236807744e+000
3.1900000000000e-001 2.6256846412664e+000
3.2000000000000e-001 2.6261433038188e+000
3.2100000000000e-001 2.6265996647679e+000
3.2200000000000e-001 2.6270537213380e+000
3.2300000000000e-001 2.6275054676450e+000
3.2400000000000e-001 2.6279549015795e+000
3.2500000000000e-001 2.6284020185896e+000
3.2600000000000e-001 2.6288468161217e+000
3.2700000000000e-001 2.6292892882918e+000
3.2800000000000e-001 2.6297294332123e+000
3.2900000000000e-001 2.6301672469975e+000
3.3000000000000e-001 2.6306027257617e+000
3.3100000000000e-001 2.6310358660631e+000
3.3200000000000e-001 2.6314666636829e+000
3.3300000000000e-001 2.6318951155124e+000
3.3400000000000e-001 2.6323212177770e+000
3.3500000000000e-001 2.6327449681451e+000
3.3600000000000e-001 2.6331663598445e+000
3.3700000000000e-001 2.6335853934301e+000
3.3800000000000e-001 2.6340020615745e+000
3.3900000000000e-001 2.6344163633896e+000
3.4000000000000e-001 2.6348282952116e+000
3.4100000000000e-001 2.6352378510452e+000
3.4200000000000e-001 2.6356450313347e+000
3.4300000000000e-001 2.6360498299738e+000
3.4400000000000e-001 2.6364522436317e+000
3.4500000000000e-001 2.6368522701992e+000
3.4600000000000e-001 2.6372499044580e+000
3.4700000000000e-001 2.6376451458532e+000
3.4800000000000e-001 2.6380379882784e+000
3.4900000000000e-001 2.6384284292913e+000
3.5000000000000e-001 2.6388164661162e+000
3.5100000000000e-001 2.6392020947563e+000
3.5200000000000e-001 2.6395853124361e+000
3.5300000000000e-001 2.6399661158250e+000
3.5400000000000e-001 2.6403445012591e+000
3.5500000000000e-001 2.6407204656298e+000
3.5600000000000e-001 2.6410940071608e+000
3.5700000000000e-001 2.6414651199680e+000
3.5800000000000e-001 2.6418338026080e+000
3.5900000000000e-001 2.6422000533044e+000
3.6000000000000e-001 2.6425638649519e+000
3.6100000000000e-001 2.6429252375504e+000
3.6200000000000e-001 2.6432841679913e+000
3.6300000000000e-001 2.6436406519448e+000
3.6400000000000e-001 2.6439946866352e+000
3.6500000000000e-001 2.6443462683989e+000
3.6600000000000e-001 2.6446953973469e+000
3.6700000000000e-001 2.6450420655966e+000
3.6800000000000e-001 2.6453862743692e+000
3.6900000000000e-001 2.6457280170034e+000
3.7000000000000e-001 2.6460672948314e+000
3.7100000000000e-001 2.6464041016361e+000
3.7200000000000e-001 2.6467384368623e+000
3.7300000000000e-001 2.6470702946257e+000
3.7400000000000e-001 2.6473996745935e+000
3.7500000000000e-001 2.6477265724356e+000
3.7600000000000e-001 2.6480509870419e+000
3.7700000000000e-001 2.6483729128612e+000
3.7800000000000e-001 2.6486923504487e+000
3.7900000000000e-001 2.6490092952525e+000
3.8000000000000e-001 2.6493237432756e+000
3.8100000000000e-001 2.6496356942962e+000
3.8200000000000e-001 2.6499451440398e+000
3.8300000000000e-001 2.6502520904526e+000
3.8400000000000e-001 2.6505565296486e+000
3.8500000000000e-001 2.6508584613505e+000
3.8600000000000e-001 2.6511578803401e+000
3.8700000000000e-001 2.6514547851741e+000
3.8800000000000e-001 2.6517491748534e+000
3.8900000000000e-001 2.6520410433828e+000
3.9000000000000e-001 2.6523303916504e+000
3.9100000000000e-001 2.6526172137720e+000
3.9200000000000e-001 2.6529015104138e+000
3.9300000000000e-001 2.6531832768018e+000
3.9400000000000e-001 2.6534625118257e+000
3.9500000000000e-001 2.6537392127102e+000
3.9600000000000e-001 2.6540133763464e+000
3.9700000000000e-001 2.6542850004585e+000
3.9800000000000e-001 2.6545540839362e+000
3.9900000000000e-001 2.6548206227273e+000
4.0000000000000e-001 2.6550846159989e+000
4.0100000000000e-001 2.6553460599210e+000
4.0200000000000e-001 2.6556049541604e+000
4.0300000000000e-001 2.6558612944982e+000
4.0400000000000e-001 2.6561150794913e+000
4.0500000000000e-001 2.6563663066970e+000
4.0600000000000e-001 2.6566149747831e+000
4.0700000000000e-001 2.6568610798083e+000
4.0800000000000e-001 2.6571046202184e+000
4.0900000000000e-001 2.6573455960133e+000
4.1000000000000e-001 2.6575840013643e+000
4.1100000000000e-001 2.6578198378813e+000
4.1200000000000e-001 2.6580531000131e+000
4.1300000000000e-001 2.6582837884259e+000
4.1400000000000e-001 2.6585118997891e+000
4.1500000000000e-001 2.6587374327147e+000
4.1600000000000e-001 2.6589603834282e+000
4.1700000000000e-001 2.6591807527621e+000
4.1800000000000e-001 2.6593985369416e+000
4.1900000000000e-001 2.6596137334689e+000
4.2000000000000e-001 2.6598263427879e+000
4.2100000000000e-001 2.6600363611240e+000
4.2200000000000e-001 2.6602437858125e+000
4.2300000000000e-001 2.6604486175197e+000
4.2400000000000e-001 2.6606508529703e+000
4.2500000000000e-001 2.6608504906100e+000
4.2600000000000e-001 2.6610475277744e+000
4.2700000000000e-001 2.6612419649075e+000
4.2800000000000e-001 2.6614337981234e+000
4.2900000000000e-001 2.6616230263676e+000
4.3000000000000e-001 2.6618096486963e+000
4.3100000000000e-001 2.6619936621675e+000
4.3200000000000e-001 2.6621750651712e+000
4.3300000000000e-001 2.6623538580961e+000
4.3400000000000e-001 2.6625300366123e+000
4.3500000000000e-001 2.6627036005533e+000
4.3600000000000e-001 2.6628745500301e+000
4.3700000000000e-001 2.6630428791585e+000
4.3800000000000e-001 2.6632085909362e+000
4.3900000000000e-001 2.6633716810331e+000
4.4000000000000e-001 2.6635321492829e+000
4.4100000000000e-001 2.6636899934651e+000
4.4200000000000e-001 2.6638452131911e+000
4.4300000000000e-001 2.6639978057408e+000
4.4400000000000e-001 2.6641477706701e+000
4.4500000000000e-001 2.6642951072575e+000
4.4600000000000e-001 2.6644398112841e+000
4.4700000000000e-001 2.6645818848592e+000
4.4800000000000e-001 2.6647213257069e+000
4.4900000000000e-001 2.6648581307187e+000
4.5000000000000e-001 2.6649923016708e+000
4.5100000000000e-001 2.6651238353992e+000
4.5200000000000e-001 2.6652527301274e+000
4.5300000000000e-001 2.6653789864106e+000
4.5400000000000e-001 2.6655026023614e+000
4.5500000000000e-001 2.6656235772582e+000
4.5600000000000e-001 2.6657419082698e+000
4.5700000000000e-001 2.6658575969507e+000
4.5800000000000e-001 2.6659706405252e+000
4.5900000000000e-001 2.6660810386603e+000
4.6000000000000e-001 2.6661887894686e+000
4.6100000000000e-001 2.6662938931166e+000
4.6200000000000e-001 2.6663963486606e+000
4.6300000000000e-001 2.6664961535472e+000
4.6400000000000e-001 2.6665933083314e+000
4.6500000000000e-001 2.6666878125692e+000
4.6600000000000e-001 2.6667796628188e+000
4.6700000000000e-001 2.6668688615783e+000
4.6800000000000e-001 2.6669554061831e+000
4.6900000000000e-001 2.6670392961337e+000
4.7000000000000e-001 2.6671205302642e+000
4.7100000000000e-001 2.6671991083527e+000
4.7200000000000e-001 2.6672750304546e+000
4.7300000000000e-001 2.6673482941275e+000
4.7400000000000e-001 2.6674189003151e+000
4.7500000000000e-001 2.6674868463528e+000
4.7600000000000e-001 2.6675521344055e+000
4.7700000000000e-001 2.6676147614757e+000
4.7800000000000e-001 2.6676747276744e+000
4.7900000000000e-001 2.6677320331681e+000
4.8000000000000e-001 2.6677866764024e+000
4.8100000000000e-001 2.6678386578771e+000
4.8200000000000e-001 2.6678879763709e+000
4.8300000000000e-001 2.6679346311065e+000
4.8400000000000e-001 2.6679786230277e+000
4.8500000000000e-001 2.6680199503581e+000
4.8600000000000e-001 2.6680586147632e+000
4.8700000000000e-001 2.6680946113578e+000
4.8800000000000e-001 2.6681279452490e+000
4.8900000000000e-001 2.6681586131061e+000
4.9000000000000e-001 2.6681866151512e+000
4.9100000000000e-001 2.6682119513288e+000
4.9200000000000e-001 2.6682346210283e+000
4.9300000000000e-001 2.6682546245826e+000
4.9400000000000e-001 2.6682719608817e+000
4.9500000000000e-001 2.6682866313132e+000
4.9600000000000e-001 2.6682986339899e+000
4.9700000000000e-001 2.6683079697998e+000
4.9800000000000e-001 2.6683146384099e+000
4.9900000000000e-001 2.6683186402088e+000
5.0000000000000e-001 2.6683199738642e+000
5.0100000000000e-001 2.6683186415410e+000
5.0200000000000e-001 2.6683146404083e+000
5.0300000000000e-001 2.6683079723533e+000
5.0400000000000e-001 2.6682986379312e+000
5.0500000000000e-001 2.6682866353656e+000
5.0600000000000e-001 2.6682719662108e+000
5.0700000000000e-001 2.6682546294676e+000
5.0800000000000e-001 2.6682346266349e+000
5.0900000000000e-001 2.6682119568244e+000
5.1000000000000e-001 2.6681866204248e+000
5.1100000000000e-001 2.6681586181021e+000
5.1200000000000e-001 2.6681279491902e+000
5.1300000000000e-001 2.6680946150770e+000
5.1400000000000e-001 2.6680586157624e+000
5.1500000000000e-001 2.6680199501361e+000
5.1600000000000e-001 2.6679786203632e+000
5.1700000000000e-001 2.6679346267766e+000
5.1800000000000e-001 2.6678879679332e+000
5.1900000000000e-001 2.6678386462753e+000
5.2000000000000e-001 2.6677866603042e+000
5.2100000000000e-001 2.6677320130175e+000
5.2200000000000e-001 2.6676747022503e+000
5.2300000000000e-001 2.6676147304450e+000
5.2400000000000e-001 2.6675520962693e+000
5.2500000000000e-001 2.6674868024434e+000
5.2600000000000e-001 2.6674188481901e+000
5.2700000000000e-001 2.6673482343975e+000
5.2800000000000e-001 2.6672749616763e+000
5.2900000000000e-001 2.6671990299154e+000
5.3000000000000e-001 2.6671204412798e+000
5.3100000000000e-001 2.6670391957140e+000
5.3200000000000e-001 2.6669552936620e+000
5.3300000000000e-001 2.6668687359011e+000
5.3400000000000e-001 2.6667795237634e+000
5.3500000000000e-001 2.6666876572490e+000
5.3600000000000e-001 2.6665931385228e+000
5.3700000000000e-001 2.6664959665301e+000
5.3800000000000e-001 2.6663961433249e+000
5.3900000000000e-001 2.6662936695176e+000
5.4000000000000e-001 2.6661885464963e+000
5.4100000000000e-001 2.6660807745382e+000
5.4200000000000e-001 2.6659703548093e+000
5.4300000000000e-001 2.6658572876981e+000
5.4400000000000e-001 2.6657415751474e+000
5.4500000000000e-001 2.6656232183786e+000
5.4600000000000e-001 2.6655022173916e+000
5.4700000000000e-001 2.6653785738517e+000
5.4800000000000e-001 2.6652522888138e+000
5.4900000000000e-001 2.6651233632213e+000
5.5000000000000e-001 2.6649917987398e+000
5.5100000000000e-001 2.6648575957577e+000
5.5200000000000e-001 2.6647207552188e+000
5.5300000000000e-001 2.6645812798987e+000
5.5400000000000e-001 2.6644391697417e+000
5.5500000000000e-001 2.6642944263577e+000
5.5600000000000e-001 2.6641470509681e+000
5.5700000000000e-001 2.6639970447939e+000
5.5800000000000e-001 2.6638444088900e+000
5.5900000000000e-001 2.6636891458653e+000
5.6000000000000e-001 2.6635312553869e+000
5.6100000000000e-001 2.6633707398416e+000
5.6200000000000e-001 2.6632076010058e+000
5.6300000000000e-001 2.6630418392681e+000
5.6400000000000e-001 2.6628734566270e+000
5.6500000000000e-001 2.6627024547476e+000
5.6600000000000e-001 2.6625288352400e+000
5.6700000000000e-001 2.6623525988811e+000
5.6800000000000e-001 2.6621737473365e+000
5.6900000000000e-001 2.6619922833815e+000
5.7000000000000e-001 2.6618082071272e+000
5.7100000000000e-001 2.6616215214048e+000
5.7200000000000e-001 2.6614322269913e+000
5.7300000000000e-001 2.6612403258297e+000
5.7400000000000e-001 2.6610458191967e+000
5.7500000000000e-001 2.6608487101454e+000
5.7600000000000e-001 2.6606489989534e+000
5.7700000000000e-001 2.6604466881186e+000
5.7800000000000e-001 2.6602417788624e+000
5.7900000000000e-001 2.6600342741823e+000
5.8000000000000e-001 2.6598241737452e+000
5.8100000000000e-001 2.6596114816591e+000
5.8200000000000e-001 2.6593961989230e+000
5.8300000000000e-001 2.6591783267582e+000
5.8400000000000e-001 2.6589578681624e+000
5.8500000000000e-001 2.6587348244123e+000
5.8600000000000e-001 2.6585091976727e+000
5.8700000000000e-001 2.6582809901643e+000
5.8800000000000e-001 2.6580502033302e+000
5.8900000000000e-001 2.6578168393909e+000
5.9000000000000e-001 2.6575809009555e+000
5.9100000000000e-001 2.6573423889675e+000
5.9200000000000e-001 2.6571013064802e+000
5.9300000000000e-001 2.6568576552144e+000
5.9400000000000e-001 2.6566114371684e+000
5.9500000000000e-001 2.6563626552289e+000
5.9600000000000e-001 2.6561113110612e+000
5.9700000000000e-001 2.6558574060531e+000
5.9800000000000e-001 2.6556009442014e+000
5.9900000000000e-001 2.6553419257835e+000
6.0000000000000e-001 2.6550803551295e+000
6.0100000000000e-001 2.6548162322948e+000
6.0200000000000e-001 2.6545495611097e+000
6.0300000000000e-001 2.6542803435725e+000
6.0400000000000e-001 2.6540085827920e+000
6.0500000000000e-001 2.6537342786570e+000
6.0600000000000e-001 2.6534574359971e+000
6.0700000000000e-001 2.6531780564221e+000
6.0800000000000e-001 2.6528961421524e+000
6.0900000000000e-001 2.6526116961301e+000
6.1000000000000e-001 2.6523247205756e+000
6.1100000000000e-001 2.6520352171544e+000
6.1200000000000e-001 2.6517431901962e+000
6.1300000000000e-001 2.6514486402562e+000
6.1400000000000e-001 2.6511515713312e+000
6.1500000000000e-001 2.6508519851975e+000
6.1600000000000e-001 2.6505498849083e+000
6.1700000000000e-001 2.6502452729060e+000
6.1800000000000e-001 2.6499381516332e+000
6.1900000000000e-001 2.6496285241984e+000
6.2000000000000e-001 2.6493163924890e+000
6.2100000000000e-001 2.6490017606684e+000
6.2200000000000e-001 2.6486846295137e+000
6.2300000000000e-001 2.6483650026887e+000
6.2400000000000e-001 2.6480428835796e+000
6.2500000000000e-001 2.6477182739626e+000
6.2600000000000e-001 2.6473911771685e+000
6.2700000000000e-001 2.6470615959173e+000
6.2800000000000e-001 2.6467295325960e+000
6.2900000000000e-001 2.6463949912570e+000
6.3000000000000e-001 2.6460579731769e+000
6.3100000000000e-001 2.6457184821860e+000
6.3200000000000e-001 2.6453765217815e+000
6.3300000000000e-001 2.6450320932403e+000
6.3400000000000e-001 2.6446852007811e+000
6.3500000000000e-001 2.6443358467909e+000
6.3600000000000e-001 2.6439840346004e+000
6.3700000000000e-001 2.6436297673738e+000
6.3800000000000e-001 2.6432730475534e+000
6.3900000000000e-001 2.6429138786366e+000
6.4000000000000e-001 2.6425522632878e+000
6.4100000000000e-001 2.6421882052818e+000
6.4200000000000e-001 2.6418217066171e+000
6.4300000000000e-001 2.6414527715679e+000
6.4400000000000e-001 2.6410814022992e+000
6.4500000000000e-001 2.6407076026969e+000
6.4600000000000e-001 2.6403313756473e+000
6.4700000000000e-001 2.6399527244814e+000
6.4800000000000e-001 2.6395716522520e+000
6.4900000000000e-001 2.6391881616794e+000
6.5000000000000e-001 2.6388022571489e+000
6.5100000000000e-001 2.6384139408808e+000
6.5200000000000e-001 2.6380232163170e+000
6.5300000000000e-001 2.6376300877318e+000
6.5400000000000e-001 2.6372345576786e+000
6.5500000000000e-001 2.6368366293217e+000
6.5600000000000e-001 2.6364363061027e+000
6.5700000000000e-001 2.6360335920184e+000
6.5800000000000e-001 2.6356284894558e+000
6.5900000000000e-001 2.6352210024672e+000
6.6000000000000e-001 2.6348111342722e+000
6.6100000000000e-001 2.6343988882016e+000
6.6200000000000e-001 2.6339842686407e+000
6.6300000000000e-001 2.6335672772548e+000
6.6400000000000e-001 2.6331479192065e+000
6.6500000000000e-001 2.6327261974379e+000
6.6600000000000e-001 2.6323021152241e+000
6.6700000000000e-001 2.6318756761179e+000
6.6800000000000e-001 2.6314468843380e+000
6.6900000000000e-001 2.6310157425491e+000
6.7000000000000e-001 2.6305822551365e+000
6.7100000000000e-001 2.6301464249312e+000
6.7200000000000e-001 2.6297082559856e+000
6.7300000000000e-001 2.6292677521855e+000
6.7400000000000e-001 2.6288249167505e+000
6.7500000000000e-001 2.6283797532334e+000
6.7600000000000e-001 2.6279322663525e+000
6.7700000000000e-001 2.6274824581063e+000
6.7800000000000e-001 2.6270303336018e+000
6.7900000000000e-001 2.6265758965027e+000
6.8000000000000e-001 2.6261191496957e+000
6.8100000000000e-001 2.6256600972330e+000
6.8200000000000e-001 2.6251987436665e+000
6.8300000000000e-001 2.6247350920494e+000
6.8400000000000e-001 2.6242691463230e+000
6.8500000000000e-001 2.6238009103174e+000
6.8600000000000e-001 2.6233303874745e+000
6.8700000000000e-001 2.6228575831788e+000
6.8800000000000e-001 2.6223824994287e+000
6.8900000000000e-001 2.6219051411092e+000
6.9000000000000e-001 2.6214255118839e+000
6.9100000000000e-001 2.6209436157498e+000
6.9200000000000e-001 2.6204594570367e+000
6.9300000000000e-001 2.6199730385201e+000
6.9400000000000e-001 2.6194843653626e+000
6.9500000000000e-001 2.6189934408394e+000
6.9600000000000e-001 2.6185002695578e+000
6.9700000000000e-001 2.6180048549596e+000
6.9800000000000e-001 2.6175072010970e+000
6.9900000000000e-001 2.6170073120779e+000
7.0000000000000e-001 2.6165051921767e+000
7.0100000000000e-001 2.6160008451681e+000
7.0200000000000e-001 2.6154942753265e+000
7.0300000000000e-001 2.6149854868707e+000
7.0400000000000e-001 2.6144744830203e+000
7.0500000000000e-001 2.6139612696596e+000
7.0600000000000e-001 2.6134458490645e+000
7.0700000000000e-001 2.6129282263976e+000
7.0800000000000e-001 2.6124084050450e+000
7.0900000000000e-001 2.6118863901692e+000
7.1000000000000e-001 2.6113621852675e+000
7.1100000000000e-001 2.6108357951138e+000