TITLE = "FUNC"
VARIABLES = "X", "Y", "F"
ZONE I=26, J=11, F=POINT
0.0000000000000e+000 0.0000000000000e+000 1.0000008473000e+000
2.0000000000000e-002 0.0000000000000e+000 1.0000008473000e+000
4.0000000000000e-002 0.0000000000000e+000 1.0000008473000e+000
6.0000000000000e-002 0.0000000000000e+000 1.0000008473000e+000
8.0000000000000e-002 0.0000000000000e+000 1.0000008473000e+000
1.0000000000000e-001 0.0000000000000e+000 1.0000008473000e+000
1.2000000000000e-001 0.0000000000000e+000 1.0000008473000e+000
1.4000000000000e-001 0.0000000000000e+000 1.0000008473000e+000
1.6000000000000e-001 0.0000000000000e+000 1.0000008473000e+000
1.8000000000000e-001 0.0000000000000e+000 1.0000008473000e+000
2.0000000000000e-001 0.0000000000000e+000 1.0000008473000e+000
2.2000000000000e-001 0.0000000000000e+000 1.0000008473000e+000
2.4000000000000e-001 0.0000000000000e+000 1.0000008473000e+000
2.6000000000000e-001 0.0000000000000e+000 1.0000008473000e+000
2.8000000000000e-001 0.0000000000000e+000 1.0000008473000e+000
3.0000000000000e-001 0.0000000000000e+000 1.0000008473000e+000
3.2000000000000e-001 0.0000000000000e+000 1.0000008473000e+000
3.4000000000000e-001 0.0000000000000e+000 1.0000008473000e+000
3.6000000000000e-001 0.0000000000000e+000 1.0000008473000e+000
3.8000000000000e-001 0.0000000000000e+000 1.0000008473000e+000
4.0000000000000e-001 0.0000000000000e+000 1.0000008473000e+000
4.2000000000000e-001 0.0000000000000e+000 1.0000008473000e+000
4.4000000000000e-001 0.0000000000000e+000 1.0000008473000e+000
4.6000000000000e-001 0.0000000000000e+000 1.0000008473000e+000
4.8000000000000e-001 0.0000000000000e+000 1.0000008473000e+000
5.0000000000000e-001 0.0000000000000e+000 9.9845706037310e-001
0.0000000000000e+000 2.0000000000000e-002 6.6690368640456e-001
2.0000000000000e-002 2.0000000000000e-002 6.6690368640456e-001
4.0000000000000e-002 2.0000000000000e-002 6.6690368640456e-001
6.0000000000000e-002 2.0000000000000e-002 6.6690368640456e-001
8.0000000000000e-002 2.0000000000000e-002 6.6690368640456e-001
1.0000000000000e-001 2.0000000000000e-002 6.6690368640456e-001
1.2000000000000e-001 2.0000000000000e-002 6.6690368640456e-001
1.4000000000000e-001 2.0000000000000e-002 6.6690368640456e-001
1.6000000000000e-001 2.0000000000000e-002 6.6690368640456e-001
1.8000000000000e-001 2.0000000000000e-002 6.6690368640456e-001
2.0000000000000e-001 2.0000000000000e-002 6.6690368640456e-001
2.2000000000000e-001 2.0000000000000e-002 6.6690368640456e-001
2.4000000000000e-001 2.0000000000000e-002 6.6690368640456e-001
2.6000000000000e-001 2.0000000000000e-002 6.6690368640456e-001
2.8000000000000e-001 2.0000000000000e-002 6.6690368640456e-001
3.0000000000000e-001 2.0000000000000e-002 6.6690368640456e-001
3.2000000000000e-001 2.0000000000000e-002 6.6690368640456e-001
3.4000000000000e-001 2.0000000000000e-002 6.6690368640456e-001
3.6000000000000e-001 2.0000000000000e-002 6.6690368640456e-001
3.8000000000000e-001 2.0000000000000e-002 6.6690368640456e-001
4.0000000000000e-001 2.0000000000000e-002 6.6690368640456e-001
4.2000000000000e-001 2.0000000000000e-002 6.6690368640456e-001
4.4000000000000e-001 2.0000000000000e-002 6.6690368640456e-001
4.6000000000000e-001 2.0000000000000e-002 6.6690368640456e-001
4.8000000000000e-001 2.0000000000000e-002 6.6690368640456e-001
5.0000000000000e-001 2.0000000000000e-002 6.6587393537500e-001
0.0000000000000e+000 4.0000000000000e-002 4.7863146646380e-001
2.0000000000000e-002 4.0000000000000e-002 4.7863146646380e-001
4.0000000000000e-002 4.0000000000000e-002 4.7863146646380e-001
6.0000000000000e-002 4.0000000000000e-002 4.7863146646380e-001
8.0000000000000e-002 4.0000000000000e-002 4.7863146646380e-001
1.0000000000000e-001 4.0000000000000e-002 4.7863146646380e-001
1.2000000000000e-001 4.0000000000000e-002 4.7863146646380e-001
1.4000000000000e-001 4.0000000000000e-002 4.7863146646380e-001
1.6000000000000e-001 4.0000000000000e-002 4.7863146646380e-001
1.8000000000000e-001 4.0000000000000e-002 4.7863146646380e-001
2.0000000000000e-001 4.0000000000000e-002 4.7863146646380e-001
2.2000000000000e-001 4.0000000000000e-002 4.7863146646380e-001
2.4000000000000e-001 4.0000000000000e-002 4.7863146646380e-001
2.6000000000000e-001 4.0000000000000e-002 4.7863146646380e-001
2.8000000000000e-001 4.0000000000000e-002 4.7863146646380e-001
3.0000000000000e-001 4.0000000000000e-002 4.7863146646380e-001
3.2000000000000e-001 4.0000000000000e-002 4.7863146646380e-001
3.4000000000000e-001 4.0000000000000e-002 4.7863146646380e-001
3.6000000000000e-001 4.0000000000000e-002 4.7863146646380e-001
3.8000000000000e-001 4.0000000000000e-002 4.7863146646380e-001
4.0000000000000e-001 4.0000000000000e-002 4.7863146646380e-001
4.2000000000000e-001 4.0000000000000e-002 4.7863146646380e-001
4.4000000000000e-001 4.0000000000000e-002 4.7863146646380e-001
4.6000000000000e-001 4.0000000000000e-002 4.7863146646380e-001
4.8000000000000e-001 4.0000000000000e-002 4.7863146646380e-001
5.0000000000000e-001 4.0000000000000e-002 4.7760102365923e-001
0.0000000000000e+000 6.0000000000000e-002 2.4708827410892e-001
2.0000000000000e-002 6.0000000000000e-002 2.4708827410892e-001
4.0000000000000e-002 6.0000000000000e-002 2.4708827410892e-001
6.0000000000000e-002 6.0000000000000e-002 2.4708827410892e-001
8.0000000000000e-002 6.0000000000000e-002 2.4708827410892e-001
1.0000000000000e-001 6.0000000000000e-002 2.4708827410892e-001
1.2000000000000e-001 6.0000000000000e-002 2.4708827410892e-001
1.4000000000000e-001 6.0000000000000e-002 2.4708827410892e-001
1.6000000000000e-001 6.0000000000000e-002 2.4708827410892e-001
1.8000000000000e-001 6.0000000000000e-002 2.4708827410892e-001
2.0000000000000e-001 6.0000000000000e-002 2.4708827410892e-001
2.2000000000000e-001 6.0000000000000e-002 2.4708827410892e-001
2.4000000000000e-001 6.0000000000000e-002 2.4708827410892e-001
2.6000000000000e-001 6.0000000000000e-002 2.4708827410892e-001
2.8000000000000e-001 6.0000000000000e-002 2.4708827410892e-001
3.0000000000000e-001 6.0000000000000e-002 2.4708827410892e-001
3.2000000000000e-001 6.0000000000000e-002 2.4708827410892e-001
3.4000000000000e-001 6.0000000000000e-002 2.4708827410892e-001
3.6000000000000e-001 6.0000000000000e-002 2.4708827410892e-001
3.8000000000000e-001 6.0000000000000e-002 2.4708827410892e-001
4.0000000000000e-001 6.0000000000000e-002 2.4708827410892e-001
4.2000000000000e-001 6.0000000000000e-002 2.4708827410892e-001
4.4000000000000e-001 6.0000000000000e-002 2.4708827410892e-001
4.6000000000000e-001 6.0000000000000e-002 2.4708827410892e-001
4.8000000000000e-001 6.0000000000000e-002 2.4708827410892e-001
5.0000000000000e-001 6.0000000000000e-002 2.4624559448903e-001
0.0000000000000e+000 8.0000000000000e-002 1.2527219517498e-001
2.0000000000000e-002 8.0000000000000e-002 1.2527219517498e-001
4.0000000000000e-002 8.0000000000000e-002 1.2527219517498e-001
6.0000000000000e-002 8.0000000000000e-002 1.2527219517498e-001
8.0000000000000e-002 8.0000000000000e-002 1.2527219517498e-001
1.0000000000000e-001 8.0000000000000e-002 1.2527219517498e-001
1.2000000000000e-001 8.0000000000000e-002 1.2527219517498e-001
1.4000000000000e-001 8.0000000000000e-002 1.2527219517498e-001
1.6000000000000e-001 8.0000000000000e-002 1.2527219517498e-001
1.8000000000000e-001 8.0000000000000e-002 1.2527219517498e-001
2.0000000000000e-001 8.0000000000000e-002 1.2527219517498e-001
2.2000000000000e-001 8.0000000000000e-002 1.2527219517498e-001
2.4000000000000e-001 8.0000000000000e-002 1.2527219517498e-001
2.6000000000000e-001 8.0000000000000e-002 1.2527219517498e-001
2.8000000000000e-001 8.0000000000000e-002 1.2527219517498e-001
3.0000000000000e-001 8.0000000000000e-002 1.2527219517498e-001
3.2000000000000e-001 8.0000000000000e-002 1.2527219517498e-001
3.4000000000000e-001 8.0000000000000e-002 1.2527219517498e-001
3.6000000000000e-001 8.0000000000000e-002 1.2527219517498e-001
3.8000000000000e-001 8.0000000000000e-002 1.2527219517498e-001
4.0000000000000e-001 8.0000000000000e-002 1.2527219517498e-001
4.2000000000000e-001 8.0000000000000e-002 1.2527219517498e-001
4.4000000000000e-001 8.0000000000000e-002 1.2527219517498e-001
4.6000000000000e-001 8.0000000000000e-002 1.2527219517498e-001
4.8000000000000e-001 8.0000000000000e-002 1.2527219517498e-001
5.0000000000000e-001 8.0000000000000e-002 1.2449107736169e-001
0.0000000000000e+000 1.0000000000000e-001 5.9800243568185e-002
2.0000000000000e-002 1.0000000000000e-001 5.9800243568185e-002
4.0000000000000e-002 1.0000000000000e-001 5.9800243568185e-002
6.0000000000000e-002 1.0000000000000e-001 5.9800243568185e-002
8.0000000000000e-002 1.0000000000000e-001 5.9800243568185e-002
1.0000000000000e-001 1.0000000000000e-001 5.9800243568185e-002
1.2000000000000e-001 1.0000000000000e-001 5.9800243568185e-002
1.4000000000000e-001 1.0000000000000e-001 5.9800243568185e-002
1.6000000000000e-001 1.0000000000000e-001 5.9800243568185e-002
1.8000000000000e-001 1.0000000000000e-001 5.9800243568185e-002
2.0000000000000e-001 1.0000000000000e-001 5.9800243568185e-002
2.2000000000000e-001 1.0000000000000e-001 5.9800243568185e-002
2.4000000000000e-001 1.0000000000000e-001 5.9800243568185e-002
2.6000000000000e-001 1.0000000000000e-001 5.9800243568185e-002
2.8000000000000e-001 1.0000000000000e-001 5.9800243568185e-002
3.0000000000000e-001 1.0000000000000e-001 5.9800243568185e-002
3.2000000000000e-001 1.0000000000000e-001 5.9800243568185e-002
3.4000000000000e-001 1.0000000000000e-001 5.9800243568185e-002
3.6000000000000e-001 1.0000000000000e-001 5.9800243568185e-002
3.8000000000000e-001 1.0000000000000e-001 5.9800243568185e-002
4.0000000000000e-001 1.0000000000000e-001 5.9800243568185e-002
4.2000000000000e-001 1.0000000000000e-001 5.9800243568185e-002
4.4000000000000e-001 1.0000000000000e-001 5.9800243568185e-002
4.6000000000000e-001 1.0000000000000e-001 5.9800243568185e-002
4.8000000000000e-001 1.0000000000000e-001 5.9800243568185e-002
5.0000000000000e-001 1.0000000000000e-001 5.9023730572709e-002
0.0000000000000e+000 1.2000000000000e-001 5.0672829611893e-002
2.0000000000000e-002 1.2000000000000e-001 5.0672829611893e-002
4.0000000000000e-002 1.2000000000000e-001 5.0672829611893e-002
6.0000000000000e-002 1.2000000000000e-001 5.0672829611893e-002
8.0000000000000e-002 1.2000000000000e-001 5.0672829611893e-002
1.0000000000000e-001 1.2000000000000e-001 5.0672829611893e-002
1.2000000000000e-001 1.2000000000000e-001 5.0672829611893e-002
1.4000000000000e-001 1.2000000000000e-001 5.0672829611893e-002
1.6000000000000e-001 1.2000000000000e-001 5.0672829611893e-002
1.8000000000000e-001 1.2000000000000e-001 5.0672829611893e-002
2.0000000000000e-001 1.2000000000000e-001 5.0672829611893e-002
2.2000000000000e-001 1.2000000000000e-001 5.0672829611893e-002
2.4000000000000e-001 1.2000000000000e-001 5.0672829611893e-002
2.6000000000000e-001 1.2000000000000e-001 5.0672829611893e-002
2.8000000000000e-001 1.2000000000000e-001 5.0672829611893e-002
3.0000000000000e-001 1.2000000000000e-001 5.0672829611893e-002
3.2000000000000e-001 1.2000000000000e-001 5.0672829611893e-002
3.4000000000000e-001 1.2000000000000e-001 5.0672829611893e-002
3.6000000000000e-001 1.2000000000000e-001 5.0672829611893e-002
3.8000000000000e-001 1.2000000000000e-001 5.0672829611893e-002
4.0000000000000e-001 1.2000000000000e-001 5.0672829611893e-002
4.2000000000000e-001 1.2000000000000e-001 5.0672829611893e-002
4.4000000000000e-001 1.2000000000000e-001 5.0672829611893e-002
4.6000000000000e-001 1.2000000000000e-001 5.0672829611893e-002
4.8000000000000e-001 1.2000000000000e-001 5.0672829611893e-002
5.0000000000000e-001 1.2000000000000e-001 4.9605702971494e-002
0.0000000000000e+000 1.4000000000000e-001 9.0352738590175e-002
2.0000000000000e-002 1.4000000000000e-001 9.0352738590175e-002
4.0000000000000e-002 1.4000000000000e-001 9.0352738590175e-002
6.0000000000000e-002 1.4000000000000e-001 9.0352738590175e-002
8.0000000000000e-002 1.4000000000000e-001 9.0352738590175e-002
1.0000000000000e-001 1.4000000000000e-001 9.0352738590175e-002
1.2000000000000e-001 1.4000000000000e-001 9.0352738590175e-002
1.4000000000000e-001 1.4000000000000e-001 9.0352738590175e-002
1.6000000000000e-001 1.4000000000000e-001 9.0352738590175e-002
1.8000000000000e-001 1.4000000000000e-001 9.0352738590175e-002
2.0000000000000e-001 1.4000000000000e-001 9.0352738590175e-002
2.2000000000000e-001 1.4000000000000e-001 9.0352738590175e-002
2.4000000000000e-001 1.4000000000000e-001 9.0352738590175e-002
2.6000000000000e-001 1.4000000000000e-001 9.0352738590175e-002
2.8000000000000e-001 1.4000000000000e-001 9.0352738590175e-002
3.0000000000000e-001 1.4000000000000e-001 9.0352738590175e-002
3.2000000000000e-001 1.4000000000000e-001 9.0352738590175e-002
3.4000000000000e-001 1.4000000000000e-001 9.0352738590175e-002
3.6000000000000e-001 1.4000000000000e-001 9.0352738590175e-002
3.8000000000000e-001 1.4000000000000e-001 9.0352738590175e-002
4.0000000000000e-001 1.4000000000000e-001 9.0352738590175e-002
4.2000000000000e-001 1.4000000000000e-001 9.0352738590175e-002
4.4000000000000e-001 1.4000000000000e-001 9.0352738590175e-002
4.6000000000000e-001 1.4000000000000e-001 9.0352738590175e-002
4.8000000000000e-001 1.4000000000000e-001 9.0352738590175e-002
5.0000000000000e-001 1.4000000000000e-001 8.8539505771689e-002
0.0000000000000e+000 1.6000000000000e-001 1.9495275678263e-001
2.0000000000000e-002 1.6000000000000e-001 1.9495275678263e-001
4.0000000000000e-002 1.6000000000000e-001 1.9495275678263e-001
6.0000000000000e-002 1.6000000000000e-001 1.9495275678263e-001
8.0000000000000e-002 1.6000000000000e-001 1.9495275678263e-001
1.0000000000000e-001 1.6000000000000e-001 1.9495275678263e-001
1.2000000000000e-001 1.6000000000000e-001 1.9495275678263e-001
1.4000000000000e-001 1.6000000000000e-001 1.9495275678263e-001
1.6000000000000e-001 1.6000000000000e-001 1.9495275678263e-001
1.8000000000000e-001 1.6000000000000e-001 1.9495275678263e-001
2.0000000000000e-001 1.6000000000000e-001 1.9495275678263e-001
2.2000000000000e-001 1.6000000000000e-001 1.9495275678263e-001
2.4000000000000e-001 1.6000000000000e-001 1.9495275678263e-001
2.6000000000000e-001 1.6000000000000e-001 1.9495275678263e-001
2.8000000000000e-001 1.6000000000000e-001 1.9495275678263e-001
3.0000000000000e-001 1.6000000000000e-001 1.9495275678263e-001
3.2000000000000e-001 1.6000000000000e-001 1.9495275678263e-001
3.4000000000000e-001 1.6000000000000e-001 1.9495275678263e-001
3.6000000000000e-001 1.6000000000000e-001 1.9495275678263e-001
3.8000000000000e-001 1.6000000000000e-001 1.9495275678263e-001
4.0000000000000e-001 1.6000000000000e-001 1.9495275678263e-001
4.2000000000000e-001 1.6000000000000e-001 1.9495275678263e-001
4.4000000000000e-001 1.6000000000000e-001 1.9495275678263e-001
4.6000000000000e-001 1.6000000000000e-001 1.9495275678263e-001
4.8000000000000e-001 1.6000000000000e-001 1.9495275678263e-001
5.0000000000000e-001 1.6000000000000e-001 1.9190173007933e-001
0.0000000000000e+000 1.8000000000000e-001 3.8472321728352e-001
2.0000000000000e-002 1.8000000000000e-001 3.8472321728352e-001
4.0000000000000e-002 1.8000000000000e-001 3.8472321728352e-001
6.0000000000000e-002 1.8000000000000e-001 3.8472321728352e-001
8.0000000000000e-002 1.8000000000000e-001 3.8472321728352e-001
1.0000000000000e-001 1.8000000000000e-001 3.8472321728352e-001
1.2000000000000e-001 1.8000000000000e-001 3.8472321728352e-001
1.4000000000000e-001 1.8000000000000e-001 3.8472321728352e-001
1.6000000000000e-001 1.8000000000000e-001 3.8472321728352e-001
1.8000000000000e-001 1.8000000000000e-001 3.8472321728352e-001
2.0000000000000e-001 1.8000000000000e-001 3.8472321728352e-001
2.2000000000000e-001 1.8000000000000e-001 3.8472321728352e-001
2.4000000000000e-001 1.8000000000000e-001 3.8472321728352e-001
2.6000000000000e-001 1.8000000000000e-001 3.8472321728352e-001
2.8000000000000e-001 1.8000000000000e-001 3.8472321728352e-001
3.0000000000000e-001 1.8000000000000e-001 3.8472321728352e-001
3.2000000000000e-001 1.8000000000000e-001 3.8472321728352e-001
3.4000000000000e-001 1.8000000000000e-001 3.8472321728352e-001
3.6000000000000e-001 1.8000000000000e-001 3.8472321728352e-001
3.8000000000000e-001 1.8000000000000e-001 3.8472321728352e-001
4.0000000000000e-001 1.8000000000000e-001 3.8472321728352e-001
4.2000000000000e-001 1.8000000000000e-001 3.8472321728352e-001
4.4000000000000e-001 1.8000000000000e-001 3.8472321728352e-001
4.6000000000000e-001 1.8000000000000e-001 3.8472321728352e-001
4.8000000000000e-001 1.8000000000000e-001 3.8472321728352e-001
5.0000000000000e-001 1.8000000000000e-001 3.8306071417661e-001
0.0000000000000e+000 2.0000000000000e-001 6.6383865362319e-001
2.0000000000000e-002 2.0000000000000e-001 6.6383865362319e-001
4.0000000000000e-002 2.0000000000000e-001 6.6383865362319e-001
6.0000000000000e-002 2.0000000000000e-001 6.6383865362319e-001
8.0000000000000e-002 2.0000000000000e-001 6.6383865362319e-001
1.0000000000000e-001 2.0000000000000e-001 6.6383865362319e-001
1.2000000000000e-001 2.0000000000000e-001 6.6383865362319e-001
1.4000000000000e-001 2.0000000000000e-001 6.6383865362319e-001
1.6000000000000e-001 2.0000000000000e-001 6.6383865362319e-001
1.8000000000000e-001 2.0000000000000e-001 6.6383865362319e-001
2.0000000000000e-001 2.0000000000000e-001 6.6383865362319e-001
2.2000000000000e-001 2.0000000000000e-001 6.6383865362319e-001
2.4000000000000e-001 2.0000000000000e-001 6.6383865362319e-001
2.6000000000000e-001 2.0000000000000e-001 6.6383865362319e-001
2.8000000000000e-001 2.0000000000000e-001 6.6383865362319e-001
3.0000000000000e-001 2.0000000000000e-001 6.6383865362319e-001
3.2000000000000e-001 2.0000000000000e-001 6.6383865362319e-001
3.4000000000000e-001 2.0000000000000e-001 6.6383865362319e-001
3.6000000000000e-001 2.0000000000000e-001 6.6383865362319e-001
3.8000000000000e-001 2.0000000000000e-001 6.6383865362319e-001
4.0000000000000e-001 2.0000000000000e-001 6.6383865362319e-001
4.2000000000000e-001 2.0000000000000e-001 6.6383865362319e-001
4.4000000000000e-001 2.0000000000000e-001 6.6383865362319e-001
4.6000000000000e-001 2.0000000000000e-001 6.6383865362319e-001
4.8000000000000e-001 2.0000000000000e-001 6.6383865362319e-001
5.0000000000000e-001 2.0000000000000e-001 6.6298825955930e-001
ZONE I=25, J=11, F=POINT
5.2000000000000e-001 0.0000000000000e+000 -1.1265644331287e+001
5.4000000000000e-001 0.0000000000000e+000 -1.1267188118214e+001
5.6000000000000e-001 0.0000000000000e+000 -1.1267188118214e+001
5.8000000000000e-001 0.0000000000000e+000 -1.1267188118214e+001
6.0000000000000e-001 0.0000000000000e+000 -1.1267188118214e+001
6.2000000000000e-001 0.0000000000000e+000 -1.1267188118214e+001
6.4000000000000e-001 0.0000000000000e+000 -1.1267188118214e+001
6.6000000000000e-001 0.0000000000000e+000 -1.1267188118214e+001
6.8000000000000e-001 0.0000000000000e+000 -1.1267188118214e+001
7.0000000000000e-001 0.0000000000000e+000 -1.1267188118214e+001
7.2000000000000e-001 0.0000000000000e+000 -1.1267188118214e+001
7.4000000000000e-001 0.0000000000000e+000 -1.1267188118214e+001
7.6000000000000e-001 0.0000000000000e+000 -1.1267188118214e+001
7.8000000000000e-001 0.0000000000000e+000 -1.1267188118214e+001
8.0000000000000e-001 0.0000000000000e+000 -1.1267188118214e+001
8.2000000000000e-001 0.0000000000000e+000 -1.1267188118214e+001
8.4000000000000e-001 0.0000000000000e+000 -1.1267188118214e+001
8.6000000000000e-001 0.0000000000000e+000 -1.1267188118214e+001
8.8000000000000e-001 0.0000000000000e+000 -1.1267188118214e+001
9.0000000000000e-001 0.0000000000000e+000 -1.1267188118214e+001
9.2000000000000e-001 0.0000000000000e+000 -1.1267188118214e+001
9.4000000000000e-001 0.0000000000000e+000 -1.1267188118214e+001
9.6000000000000e-001 0.0000000000000e+000 -1.1267188118214e+001
9.8000000000000e-001 0.0000000000000e+000 -1.1267188118214e+001
1.0000000000000e+000 0.0000000000000e+000 -1.1267188118214e+001
5.2000000000000e-001 2.0000000000000e-002 -7.5146403665943e+000
5.4000000000000e-001 2.0000000000000e-002 -7.5156701176239e+000
5.6000000000000e-001 2.0000000000000e-002 -7.5156701176239e+000
5.8000000000000e-001 2.0000000000000e-002 -7.5156701176239e+000
6.0000000000000e-001 2.0000000000000e-002 -7.5156701176239e+000
6.2000000000000e-001 2.0000000000000e-002 -7.5156701176239e+000
6.4000000000000e-001 2.0000000000000e-002 -7.5156701176239e+000
6.6000000000000e-001 2.0000000000000e-002 -7.5156701176239e+000
6.8000000000000e-001 2.0000000000000e-002 -7.5156701176239e+000
7.0000000000000e-001 2.0000000000000e-002 -7.5156701176239e+000
7.2000000000000e-001 2.0000000000000e-002 -7.5156701176239e+000
7.4000000000000e-001 2.0000000000000e-002 -7.5156701176239e+000
7.6000000000000e-001 2.0000000000000e-002 -7.5156701176239e+000
7.8000000000000e-001 2.0000000000000e-002 -7.5156701176239e+000
8.0000000000000e-001 2.0000000000000e-002 -7.5156701176239e+000
8.2000000000000e-001 2.0000000000000e-002 -7.5156701176239e+000
8.4000000000000e-001 2.0000000000000e-002 -7.5156701176239e+000
8.6000000000000e-001 2.0000000000000e-002 -7.5156701176239e+000
8.8000000000000e-001 2.0000000000000e-002 -7.5156701176239e+000
9.0000000000000e-001 2.0000000000000e-002 -7.5156701176239e+000
9.2000000000000e-001 2.0000000000000e-002 -7.5156701176239e+000
9.4000000000000e-001 2.0000000000000e-002 -7.5156701176239e+000
9.6000000000000e-001 2.0000000000000e-002 -7.5156701176239e+000
9.8000000000000e-001 2.0000000000000e-002 -7.5156701176239e+000
1.0000000000000e+000 2.0000000000000e-002 -7.5156701176239e+000
5.2000000000000e-001 4.0000000000000e-002 -7.7084088546297e+000
5.4000000000000e-001 4.0000000000000e-002 -7.7094392974343e+000
5.6000000000000e-001 4.0000000000000e-002 -7.7094392974343e+000
5.8000000000000e-001 4.0000000000000e-002 -7.7094392974343e+000
6.0000000000000e-001 4.0000000000000e-002 -7.7094392974343e+000
6.2000000000000e-001 4.0000000000000e-002 -7.7094392974343e+000
6.4000000000000e-001 4.0000000000000e-002 -7.7094392974343e+000
6.6000000000000e-001 4.0000000000000e-002 -7.7094392974343e+000
6.8000000000000e-001 4.0000000000000e-002 -7.7094392974343e+000
7.0000000000000e-001 4.0000000000000e-002 -7.7094392974343e+000
7.2000000000000e-001 4.0000000000000e-002 -7.7094392974343e+000
7.4000000000000e-001 4.0000000000000e-002 -7.7094392974343e+000
7.6000000000000e-001 4.0000000000000e-002 -7.7094392974343e+000
7.8000000000000e-001 4.0000000000000e-002 -7.7094392974343e+000
8.0000000000000e-001 4.0000000000000e-002 -7.7094392974343e+000
8.2000000000000e-001 4.0000000000000e-002 -7.7094392974343e+000
8.4000000000000e-001 4.0000000000000e-002 -7.7094392974343e+000
8.6000000000000e-001 4.0000000000000e-002 -7.7094392974343e+000
8.8000000000000e-001 4.0000000000000e-002 -7.7094392974343e+000
9.0000000000000e-001 4.0000000000000e-002 -7.7094392974343e+000
9.2000000000000e-001 4.0000000000000e-002 -7.7094392974343e+000
9.4000000000000e-001 4.0000000000000e-002 -7.7094392974343e+000
9.6000000000000e-001 4.0000000000000e-002 -7.7094392974343e+000
9.8000000000000e-001 4.0000000000000e-002 -7.7094392974343e+000
1.0000000000000e+000 4.0000000000000e-002 -7.7094392974343e+000
5.2000000000000e-001 6.0000000000000e-002 -6.4481421600174e+000
5.4000000000000e-001 6.0000000000000e-002 -6.4489848396373e+000
5.6000000000000e-001 6.0000000000000e-002 -6.4489848396373e+000
5.8000000000000e-001 6.0000000000000e-002 -6.4489848396373e+000
6.0000000000000e-001 6.0000000000000e-002 -6.4489848396373e+000
6.2000000000000e-001 6.0000000000000e-002 -6.4489848396373e+000
6.4000000000000e-001 6.0000000000000e-002 -6.4489848396373e+000
6.6000000000000e-001 6.0000000000000e-002 -6.4489848396373e+000
6.8000000000000e-001 6.0000000000000e-002 -6.4489848396373e+000
7.0000000000000e-001 6.0000000000000e-002 -6.4489848396373e+000
7.2000000000000e-001 6.0000000000000e-002 -6.4489848396373e+000
7.4000000000000e-001 6.0000000000000e-002 -6.4489848396373e+000
7.6000000000000e-001 6.0000000000000e-002 -6.4489848396373e+000
7.8000000000000e-001 6.0000000000000e-002 -6.4489848396373e+000
8.0000000000000e-001 6.0000000000000e-002 -6.4489848396373e+000
8.2000000000000e-001 6.0000000000000e-002 -6.4489848396373e+000
8.4000000000000e-001 6.0000000000000e-002 -6.4489848396373e+000
8.6000000000000e-001 6.0000000000000e-002 -6.4489848396373e+000
8.8000000000000e-001 6.0000000000000e-002 -6.4489848396373e+000
9.0000000000000e-001 6.0000000000000e-002 -6.4489848396373e+000
9.2000000000000e-001 6.0000000000000e-002 -6.4489848396373e+000
9.4000000000000e-001 6.0000000000000e-002 -6.4489848396373e+000
9.6000000000000e-001 6.0000000000000e-002 -6.4489848396373e+000
9.8000000000000e-001 6.0000000000000e-002 -6.4489848396373e+000
1.0000000000000e+000 6.0000000000000e-002 -6.4489848396373e+000
5.2000000000000e-001 8.0000000000000e-002 -6.0808393955086e+000
5.4000000000000e-001 8.0000000000000e-002 -6.0816205133219e+000
5.6000000000000e-001 8.0000000000000e-002 -6.0816205133219e+000
5.8000000000000e-001 8.0000000000000e-002 -6.0816205133219e+000
6.0000000000000e-001 8.0000000000000e-002 -6.0816205133219e+000
6.2000000000000e-001 8.0000000000000e-002 -6.0816205133219e+000
6.4000000000000e-001 8.0000000000000e-002 -6.0816205133219e+000
6.6000000000000e-001 8.0000000000000e-002 -6.0816205133219e+000
6.8000000000000e-001 8.0000000000000e-002 -6.0816205133219e+000
7.0000000000000e-001 8.0000000000000e-002 -6.0816205133219e+000
7.2000000000000e-001 8.0000000000000e-002 -6.0816205133219e+000
7.4000000000000e-001 8.0000000000000e-002 -6.0816205133219e+000
7.6000000000000e-001 8.0000000000000e-002 -6.0816205133219e+000
7.8000000000000e-001 8.0000000000000e-002 -6.0816205133219e+000
8.0000000000000e-001 8.0000000000000e-002 -6.0816205133219e+000
8.2000000000000e-001 8.0000000000000e-002 -6.0816205133219e+000
8.4000000000000e-001 8.0000000000000e-002 -6.0816205133219e+000
8.6000000000000e-001 8.0000000000000e-002 -6.0816205133219e+000
8.8000000000000e-001 8.0000000000000e-002 -6.0816205133219e+000
9.0000000000000e-001 8.0000000000000e-002 -6.0816205133219e+000
9.2000000000000e-001 8.0000000000000e-002 -6.0816205133219e+000
9.4000000000000e-001 8.0000000000000e-002 -6.0816205133219e+000
9.6000000000000e-001 8.0000000000000e-002 -6.0816205133219e+000
9.8000000000000e-001 8.0000000000000e-002 -6.0816205133219e+000
1.0000000000000e+000 8.0000000000000e-002 -6.0816205133219e+000
5.2000000000000e-001 1.0000000000000e-001 -6.1097252998465e+000
5.4000000000000e-001 1.0000000000000e-001 -6.1105018128420e+000
5.6000000000000e-001 1.0000000000000e-001 -6.1105018128420e+000
5.8000000000000e-001 1.0000000000000e-001 -6.1105018128420e+000
6.0000000000000e-001 1.0000000000000e-001 -6.1105018128420e+000
6.2000000000000e-001 1.0000000000000e-001 -6.1105018128420e+000
6.4000000000000e-001 1.0000000000000e-001 -6.1105018128420e+000
6.6000000000000e-001 1.0000000000000e-001 -6.1105018128420e+000
6.8000000000000e-001 1.0000000000000e-001 -6.1105018128420e+000
7.0000000000000e-001 1.0000000000000e-001 -6.1105018128420e+000
7.2000000000000e-001 1.0000000000000e-001 -6.1105018128420e+000
7.4000000000000e-001 1.0000000000000e-001 -6.1105018128420e+000
7.6000000000000e-001 1.0000000000000e-001 -6.1105018128420e+000
7.8000000000000e-001 1.0000000000000e-001 -6.1105018128420e+000
8.0000000000000e-001 1.0000000000000e-001 -6.1105018128420e+000
8.2000000000000e-001 1.0000000000000e-001 -6.1105018128420e+000
8.4000000000000e-001 1.0000000000000e-001 -6.1105018128420e+000
8.6000000000000e-001 1.0000000000000e-001 -6.1105018128420e+000
8.8000000000000e-001 1.0000000000000e-001 -6.1105018128420e+000
9.0000000000000e-001 1.0000000000000e-001 -6.1105018128420e+000
9.2000000000000e-001 1.0000000000000e-001 -6.1105018128420e+000
9.4000000000000e-001 1.0000000000000e-001 -6.1105018128420e+000
9.6000000000000e-001 1.0000000000000e-001 -6.1105018128420e+000
9.8000000000000e-001 1.0000000000000e-001 -6.1105018128420e+000
1.0000000000000e+000 1.0000000000000e-001 -6.1105018128420e+000
5.2000000000000e-001 1.2000000000000e-001 -8.4278266988659e+000
5.4000000000000e-001 1.2000000000000e-001 -8.4288938255063e+000
5.6000000000000e-001 1.2000000000000e-001 -8.4288938255063e+000
5.8000000000000e-001 1.2000000000000e-001 -8.4288938255063e+000
6.0000000000000e-001 1.2000000000000e-001 -8.4288938255063e+000
6.2000000000000e-001 1.2000000000000e-001 -8.4288938255063e+000
6.4000000000000e-001 1.2000000000000e-001 -8.4288938255063e+000
6.6000000000000e-001 1.2000000000000e-001 -8.4288938255063e+000
6.8000000000000e-001 1.2000000000000e-001 -8.4288938255063e+000
7.0000000000000e-001 1.2000000000000e-001 -8.4288938255063e+000
7.2000000000000e-001 1.2000000000000e-001 -8.4288938255063e+000
7.4000000000000e-001 1.2000000000000e-001 -8.4288938255063e+000
7.6000000000000e-001 1.2000000000000e-001 -8.4288938255063e+000
7.8000000000000e-001 1.2000000000000e-001 -8.4288938255063e+000
8.0000000000000e-001 1.2000000000000e-001 -8.4288938255063e+000
8.2000000000000e-001 1.2000000000000e-001 -8.4288938255063e+000
8.4000000000000e-001 1.2000000000000e-001 -8.4288938255063e+000
8.6000000000000e-001 1.2000000000000e-001 -8.4288938255063e+000
8.8000000000000e-001 1.2000000000000e-001 -8.4288938255063e+000
9.0000000000000e-001 1.2000000000000e-001 -8.4288938255063e+000
9.2000000000000e-001 1.2000000000000e-001 -8.4288938255063e+000
9.4000000000000e-001 1.2000000000000e-001 -8.4288938255063e+000
9.6000000000000e-001 1.2000000000000e-001 -8.4288938255063e+000
9.8000000000000e-001 1.2000000000000e-001 -8.4288938255063e+000
1.0000000000000e+000 1.2000000000000e-001 -8.4288938255063e+000
5.2000000000000e-001 1.4000000000000e-001 -1.4316085086636e+001
5.4000000000000e-001 1.4000000000000e-001 -1.4317898319454e+001
5.6000000000000e-001 1.4000000000000e-001 -1.4317898319454e+001
5.8000000000000e-001 1.4000000000000e-001 -1.4317898319454e+001
6.0000000000000e-001 1.4000000000000e-001 -1.4317898319454e+001
6.2000000000000e-001 1.4000000000000e-001 -1.4317898319454e+001
6.4000000000000e-001 1.4000000000000e-001 -1.4317898319454e+001
6.6000000000000e-001 1.4000000000000e-001 -1.4317898319454e+001
6.8000000000000e-001 1.4000000000000e-001 -1.4317898319454e+001
7.0000000000000e-001 1.4000000000000e-001 -1.4317898319454e+001