TITLE = "FUNC"
VARIABLES = "X", "F"
ZONE I=1001, F=POINT
0.0000000000000e+000 1.0000000000000e+000
2.0000000000000e-003 1.9402889464819e+001
4.0000000000000e-003 1.9076764637432e+001
6.0000000000000e-003 1.8756109811280e+001
8.0000000000000e-003 1.8440834266941e+001
1.0000000000000e-002 1.8130848751145e+001
1.2000000000000e-002 1.7826065453973e+001
1.4000000000000e-002 1.7526397986390e+001
1.6000000000000e-002 1.7231761358113e+001
1.8000000000000e-002 1.6942071955807e+001
2.0000000000000e-002 1.6657247521611e+001
2.2000000000000e-002 1.6377207131970e+001
2.4000000000000e-002 1.6101871176798e+001
2.6000000000000e-002 1.5831161338936e+001
2.8000000000000e-002 1.5565000573932e+001
3.0000000000000e-002 1.5303313090106e+001
3.2000000000000e-002 1.5046024328927e+001
3.4000000000000e-002 1.4793060945676e+001
3.6000000000000e-002 1.4544350790397e+001
3.8000000000000e-002 1.4299822889138e+001
4.0000000000000e-002 1.4059407425470e+001
4.2000000000000e-002 1.3823035722285e+001
4.4000000000000e-002 1.3590640223863e+001
4.6000000000000e-002 1.3362154478215e+001
4.8000000000000e-002 1.3137513119685e+001
5.0000000000000e-002 1.2916651851817e+001
5.2000000000000e-002 1.2699507430482e+001
5.4000000000000e-002 1.2486017647252e+001
5.6000000000000e-002 1.2276121313034e+001
5.8000000000000e-002 1.2069758241946e+001
6.0000000000000e-002 1.1866869235435e+001
6.2000000000000e-002 1.1667396066640e+001
6.4000000000000e-002 1.1471281464987e+001
6.6000000000000e-002 1.1278469101023e+001
6.8000000000000e-002 1.1088903571472e+001
7.0000000000000e-002 1.0902530384525e+001
7.2000000000000e-002 1.0719295945353e+001
7.4000000000000e-002 1.0539147541832e+001
7.6000000000000e-002 1.0362033330496e+001
7.8000000000000e-002 1.0187902322696e+001
8.0000000000000e-002 1.0016704370977e+001
8.2000000000000e-002 9.8483901556532e+000
8.4000000000000e-002 9.6829111715984e+000
8.6000000000000e-002 9.5202197152309e+000
8.8000000000000e-002 9.3602688717010e+000
9.0000000000000e-002 9.2030125022734e+000
9.2000000000000e-002 9.0484052319033e+000
9.4000000000000e-002 8.8964024370025e+000
9.6000000000000e-002 8.7469602333941e+000
9.8000000000000e-002 8.6000354644511e+000
1.0000000000000e-001 8.4555856894183e+000
1.0200000000000e-001 8.3135691719129e+000
1.0400000000000e-001 8.1739448686034e+000
1.0600000000000e-001 8.0366724180617e+000
1.0800000000000e-001 7.9017121297879e+000
1.1000000000000e-001 7.7690249734046e+000
1.1200000000000e-001 7.6385725680173e+000
1.1400000000000e-001 7.5103171717408e+000
1.1600000000000e-001 7.3842216713859e+000
1.1800000000000e-001 7.2602495723076e+000
1.2000000000000e-001 7.1383649884093e+000
1.2200000000000e-001 7.0185326323032e+000
1.2400000000000e-001 6.9007178056224e+000
1.2600000000000e-001 6.7848863894849e+000
1.2800000000000e-001 6.6710048351047e+000
1.3000000000000e-001 6.5590401545499e+000
1.3200000000000e-001 6.4489599116443e+000
1.3400000000000e-001 6.3407322130117e+000
1.3600000000000e-001 6.2343256992588e+000
1.3800000000000e-001 6.1297095362968e+000
1.4000000000000e-001 6.0268534067987e+000
1.4200000000000e-001 5.9257275017895e+000
1.4400000000000e-001 5.8263025123690e+000
1.4600000000000e-001 5.7285496215640e+000
1.4800000000000e-001 5.6324404963080e+000
1.5000000000000e-001 5.5379472795475e+000
1.5200000000000e-001 5.4450425824721e+000
1.5400000000000e-001 5.3536994768665e+000
1.5600000000000e-001 5.2638914875835e+000
1.5800000000000e-001 5.1755925851347e+000
1.6000000000000e-001 5.0887771783994e+000
1.6200000000000e-001 5.0034201074473e+000
1.6400000000000e-001 4.9194966364750e+000
1.6600000000000e-001 4.8369824468548e+000
1.6800000000000e-001 4.7558536302921e+000
1.7000000000000e-001 4.6760866820929e+000
1.7200000000000e-001 4.5976584945363e+000
1.7400000000000e-001 4.5205463503535e+000
1.7600000000000e-001 4.4447279163095e+000
1.7800000000000e-001 4.3701812368871e+000
1.8000000000000e-001 4.2968847280714e+000
1.8200000000000e-001 4.2248171712328e+000
1.8400000000000e-001 4.1539577071080e+000
1.8600000000000e-001 4.0842858298767e+000
1.8800000000000e-001 4.0157813813327e+000
1.9000000000000e-001 3.9484245451482e+000
1.9200000000000e-001 3.8821958412298e+000
1.9400000000000e-001 3.8170761201646e+000
1.9600000000000e-001 3.7530465577553e+000
1.9800000000000e-001 3.6900886496433e+000
2.0000000000000e-001 3.6281842060169e+000
2.0200000000000e-001 3.5673153464054e+000
2.0400000000000e-001 3.5074644945569e+000
2.0600000000000e-001 3.4486143733971e+000
2.0800000000000e-001 3.3907480000711e+000
2.1000000000000e-001 3.3338486810631e+000
2.1200000000000e-001 3.2779000073964e+000
2.1400000000000e-001 3.2228858499097e+000
2.1600000000000e-001 3.1687903546097e+000
2.1800000000000e-001 3.1155979380995e+000
2.2000000000000e-001 3.0632932830800e+000
2.2200000000000e-001 3.0118613339247e+000
2.2400000000000e-001 2.9612872923257e+000
2.2600000000000e-001 2.9115566130103e+000
2.2800000000000e-001 2.8626549995276e+000
2.3000000000000e-001 2.8145684001023e+000
2.3200000000000e-001 2.7672830035571e+000
2.3400000000000e-001 2.7207852353005e+000
2.3600000000000e-001 2.6750617533799e+000
2.3800000000000e-001 2.6300994445995e+000
2.4000000000000e-001 2.5858854207010e+000
2.4200000000000e-001 2.5424070146062e+000
2.4400000000000e-001 2.4996517767215e+000
2.4600000000000e-001 2.4576074713025e+000
2.4800000000000e-001 2.4162620728778e+000
2.5000000000000e-001 2.3756037627316e+000
2.5200000000000e-001 2.3356209254431e+000
2.5400000000000e-001 2.2963021454837e+000
2.5600000000000e-001 2.2576362038686e+000
2.5800000000000e-001 2.2196120748645e+000
2.6000000000000e-001 2.1822189227502e+000
2.6200000000000e-001 2.1454460986313e+000
2.6400000000000e-001 2.1092831373066e+000
2.6600000000000e-001 2.0737197541862e+000
2.6800000000000e-001 2.0387458422603e+000
2.7000000000000e-001 2.0043514691176e+000
2.7200000000000e-001 1.9705268740135e+000
2.7400000000000e-001 1.9372624649855e+000
2.7600000000000e-001 1.9045488160172e+000
2.7800000000000e-001 1.8723766642486e+000
2.8000000000000e-001 1.8407369072322e+000
2.8200000000000e-001 1.8096206002350e+000
2.8400000000000e-001 1.7790189535844e+000
2.8600000000000e-001 1.7489233300589e+000
2.8800000000000e-001 1.7193252423207e+000
2.9000000000000e-001 1.6902163503920e+000
2.9200000000000e-001 1.6615884591726e+000
2.9400000000000e-001 1.6334335159982e+000
2.9600000000000e-001 1.6057436082398e+000
2.9800000000000e-001 1.5785109609428e+000
3.0000000000000e-001 1.5517279345051e+000
3.0200000000000e-001 1.5253870223935e+000
3.0400000000000e-001 1.4994808488989e+000
3.0600000000000e-001 1.4740021669276e+000
3.0800000000000e-001 1.4489438558305e+000
3.1000000000000e-001 1.4242989192671e+000
3.1200000000000e-001 1.4000604831067e+000
3.1400000000000e-001 1.3762217933626e+000
3.1600000000000e-001 1.3527762141625e+000
3.1800000000000e-001 1.3297172257512e+000
3.2000000000000e-001 1.3070384225275e+000
3.2200000000000e-001 1.2847335111137e+000
3.2400000000000e-001 1.2627963084568e+000
3.2600000000000e-001 1.2412207399619e+000
3.2800000000000e-001 1.2200008376563e+000
3.3000000000000e-001 1.1991307383843e+000
3.3200000000000e-001 1.1786046820329e+000
3.3400000000000e-001 1.1584170097853e+000
3.3600000000000e-001 1.1385621624056e+000
3.3800000000000e-001 1.1190346785510e+000
3.4000000000000e-001 1.0998291931118e+000
3.4200000000000e-001 1.0809404355803e+000
3.4400000000000e-001 1.0623632284462e+000
3.4600000000000e-001 1.0440924856184e+000
3.4800000000000e-001 1.0261232108742e+000
3.5000000000000e-001 1.0084504963334e+000
3.5200000000000e-001 9.9106952095848e-001
3.5400000000000e-001 9.7397554907952e-001
3.5600000000000e-001 9.5716392894379e-001
3.5800000000000e-001 9.4063009128960e-001
3.6000000000000e-001 9.2436954794388e-001
3.6200000000000e-001 9.0837789044316e-001
3.6400000000000e-001 8.9265078867755e-001
3.6600000000000e-001 8.7718398955732e-001
3.6800000000000e-001 8.6197331570168e-001
3.7000000000000e-001 8.4701466414941e-001
3.7200000000000e-001 8.3230400509098e-001
3.7400000000000e-001 8.1783738062171e-001
3.7600000000000e-001 8.0361090351570e-001
3.7800000000000e-001 7.8962075602018e-001
3.8000000000000e-001 7.7586318866980e-001
3.8200000000000e-001 7.6233451912071e-001
3.8400000000000e-001 7.4903113100386e-001
3.8600000000000e-001 7.3594947279745e-001
3.8800000000000e-001 7.2308605671797e-001
3.9000000000000e-001 7.1043745762958e-001
3.9200000000000e-001 6.9800031197163e-001
3.9400000000000e-001 6.8577131670378e-001
3.9600000000000e-001 6.7374722826861e-001
3.9800000000000e-001 6.6192486157133e-001
4.0000000000000e-001 6.5030108897625e-001
4.0200000000000e-001 6.3887283931978e-001
4.0400000000000e-001 6.2763709693972e-001
4.0600000000000e-001 6.1659090072036e-001
4.0800000000000e-001 6.0573134315331e-001
4.1000000000000e-001 5.9505556941368e-001
4.1200000000000e-001 5.8456077645137e-001
4.1400000000000e-001 5.7424421209714e-001
4.1600000000000e-001 5.6410317418334e-001
4.1800000000000e-001 5.5413500967882e-001
4.2000000000000e-001 5.4433711383797e-001
4.2200000000000e-001 5.3470692936355e-001
4.2400000000000e-001 5.2524194558300e-001
4.2600000000000e-001 5.1593969763810e-001
4.2800000000000e-001 5.0679776568765e-001
4.3000000000000e-001 4.9781377412305e-001
4.3200000000000e-001 4.8898539079631e-001
4.3400000000000e-001 4.8031032626059e-001
4.3600000000000e-001 4.7178633302270e-001
4.3800000000000e-001 4.6341120480764e-001
4.4000000000000e-001 4.5518277583476e-001
4.4200000000000e-001 4.4709892010537e-001
4.4400000000000e-001 4.3915755070162e-001
4.4600000000000e-001 4.3135661909650e-001
4.4800000000000e-001 4.2369411447453e-001
4.5000000000000e-001 4.1616806306324e-001
4.5200000000000e-001 4.0877652747495e-001
4.5400000000000e-001 4.0151760605894e-001
4.5600000000000e-001 3.9438943226351e-001
4.5800000000000e-001 3.8739017400804e-001
4.6000000000000e-001 3.8051803306462e-001
4.6200000000000e-001 3.7377124444921e-001
4.6400000000000e-001 3.6714807582210e-001
4.6600000000000e-001 3.6064682689753e-001
4.6800000000000e-001 3.5426582886218e-001
4.7000000000000e-001 3.4800344380256e-001
4.7200000000000e-001 3.4185806414089e-001
4.7400000000000e-001 3.3582811207952e-001
4.7600000000000e-001 3.2991203905359e-001
4.7800000000000e-001 3.2410832519181e-001
4.8000000000000e-001 3.1841547878522e-001
4.8200000000000e-001 3.1283203576375e-001
4.8400000000000e-001 3.0735655918041e-001
4.8600000000000e-001 3.0198763870303e-001
4.8800000000000e-001 2.9672389011335e-001
4.9000000000000e-001 2.9156395481325e-001
4.9200000000000e-001 2.8650649933816e-001
4.9400000000000e-001 2.8155021487730e-001
4.9600000000000e-001 2.7669381680076e-001
4.9800000000000e-001 2.7193604419324e-001
5.0000000000000e-001 2.6727565939427e-001
5.0200000000000e-001 2.6271144754488e-001
5.0400000000000e-001 2.5824221614044e-001
5.0600000000000e-001 2.5386679458977e-001
5.0800000000000e-001 2.4958403378012e-001
5.1000000000000e-001 2.4539280564814e-001
5.1200000000000e-001 2.4129200275657e-001
5.1400000000000e-001 2.3728053787663e-001
5.1600000000000e-001 2.3335734357587e-001
5.1800000000000e-001 2.2952137181156e-001
5.2000000000000e-001 2.2577159352926e-001
5.2200000000000e-001 2.2210699826672e-001
5.2400000000000e-001 2.1852659376281e-001
5.2600000000000e-001 2.1502940557143e-001
5.2800000000000e-001 2.1161447668040e-001
5.3000000000000e-001 2.0828086713506e-001
5.3200000000000e-001 2.0502765366656e-001
5.3400000000000e-001 2.0185392932483e-001
5.3600000000000e-001 1.9875880311596e-001
5.3800000000000e-001 1.9574139964402e-001
5.4000000000000e-001 1.9280085875727e-001
5.4200000000000e-001 1.8993633519845e-001
5.4400000000000e-001 1.8714699825937e-001
5.4600000000000e-001 1.8443203143943e-001
5.4800000000000e-001 1.8179063210823e-001
5.5000000000000e-001 1.7922201117197e-001
5.5200000000000e-001 1.7672539274372e-001
5.5400000000000e-001 1.7430001381742e-001
5.5600000000000e-001 1.7194512394550e-001
5.5800000000000e-001 1.6965998492018e-001
5.6000000000000e-001 1.6744387045813e-001
5.6200000000000e-001 1.6529606588875e-001
5.6400000000000e-001 1.6321586784564e-001
5.6600000000000e-001 1.6120258396154e-001
5.6800000000000e-001 1.5925553256639e-001
5.7000000000000e-001 1.5737404238860e-001
5.7200000000000e-001 1.5555745225946e-001
5.7400000000000e-001 1.5380511082057e-001
5.7600000000000e-001 1.5211637623426e-001
5.7800000000000e-001 1.5049061589696e-001
5.8000000000000e-001 1.4892720615542e-001
5.8200000000000e-001 1.4742553202582e-001
5.8400000000000e-001 1.4598498691551e-001
5.8600000000000e-001 1.4460497234767e-001
5.8800000000000e-001 1.4328489768843e-001
5.9000000000000e-001 1.4202417987678e-001
5.9200000000000e-001 1.4082224315691e-001
5.9400000000000e-001 1.3967851881322e-001
5.9600000000000e-001 1.3859244490770e-001
5.9800000000000e-001 1.3756346601980e-001
6.0000000000000e-001 1.3659103298871e-001
6.0200000000000e-001 1.3567460265797e-001
6.0400000000000e-001 1.3481363762242e-001
6.0600000000000e-001 1.3400760597748e-001
6.0800000000000e-001 1.3325598107058e-001
6.1000000000000e-001 1.3255824125492e-001
6.1200000000000e-001 1.3191386964535e-001
6.1400000000000e-001 1.3132235387641e-001
6.1600000000000e-001 1.3078318586256e-001
6.1800000000000e-001 1.3029586156040e-001
6.2000000000000e-001 1.2985988073305e-001
6.2200000000000e-001 1.2947474671656e-001
6.2400000000000e-001 1.2913996618834e-001
6.2600000000000e-001 1.2885504893754e-001
6.2800000000000e-001 1.2861950763752e-001
6.3000000000000e-001 1.2843285762016e-001
6.3200000000000e-001 1.2829461665219e-001
6.3400000000000e-001 1.2820430471344e-001
6.3600000000000e-001 1.2816144377696e-001
6.3800000000000e-001 1.2816555759106e-001
6.4000000000000e-001 1.2821617146323e-001
6.4200000000000e-001 1.2831281204594e-001
6.4400000000000e-001 1.2845500712425e-001
6.4600000000000e-001 1.2864228540537e-001
6.4800000000000e-001 1.2887417630992e-001
6.5000000000000e-001 1.2915020976517e-001
6.5200000000000e-001 1.2946991600001e-001
6.5400000000000e-001 1.2983282534176e-001
6.5600000000000e-001 1.3023846801485e-001
6.5800000000000e-001 1.3068637394127e-001
6.6000000000000e-001 1.3117607254287e-001
6.6200000000000e-001 1.3170709254542e-001
6.6400000000000e-001 1.3227896178460e-001
6.6600000000000e-001 1.3289120701369e-001
6.6800000000000e-001 1.3354335371319e-001
6.7000000000000e-001 1.3423492590219e-001
6.7200000000000e-001 1.3496544595165e-001
6.7400000000000e-001 1.3573443439947e-001
6.7600000000000e-001 1.3654140976744e-001
6.7800000000000e-001 1.3738588838005e-001
6.8000000000000e-001 1.3826738418521e-001
6.8200000000000e-001 1.3918540857677e-001
6.8400000000000e-001 1.4013947021900e-001
6.8600000000000e-001 1.4112907487301e-001
6.8800000000000e-001 1.4215372522504e-001
6.9000000000000e-001 1.4321292071670e-001
6.9200000000000e-001 1.4430615737723e-001
6.9400000000000e-001 1.4543292765764e-001
6.9600000000000e-001 1.4659272026695e-001
6.9800000000000e-001 1.4778502001038e-001
7.0000000000000e-001 1.4900930762963e-001
7.0200000000000e-001 1.5026505964514e-001
7.0400000000000e-001 1.5155174820052e-001
7.0600000000000e-001 1.5286884090907e-001
7.0800000000000e-001 1.5421580070238e-001
7.1000000000000e-001 1.5559208568114e-001
7.1200000000000e-001 1.5699714896813e-001
7.1400000000000e-001 1.5843043856337e-001
7.1600000000000e-001 1.5989139720160e-001
7.1800000000000e-001 1.6137946221196e-001
7.2000000000000e-001 1.6289406537997e-001
7.2200000000000e-001 1.6443463281190e-001
7.2400000000000e-001 1.6600058480140e-001
7.2600000000000e-001 1.6759133569864e-001
7.2800000000000e-001 1.6920629378181e-001
7.3000000000000e-001 1.7084486113105e-001
7.3200000000000e-001 1.7250643350498e-001
7.3400000000000e-001 1.7419040021962e-001
7.3600000000000e-001 1.7589614403004e-001
7.3800000000000e-001 1.7762304101446e-001
7.4000000000000e-001 1.7937046046107e-001
7.4200000000000e-001 1.8113776475753e-001
7.4400000000000e-001 1.8292430928316e-001
7.4600000000000e-001 1.8472944230389e-001
7.4800000000000e-001 1.8655250487002e-001
7.5000000000000e-001 1.8839283071681e-001
7.5200000000000e-001 1.9024974616792e-001
7.5400000000000e-001 1.9212257004180e-001
7.5600000000000e-001 1.9401061356104e-001
7.5800000000000e-001 1.9591318026470e-001
7.6000000000000e-001 1.9782956592368e-001
7.6200000000000e-001 1.9975905845921e-001
7.6400000000000e-001 2.0170093786442e-001
7.6600000000000e-001 2.0365447612916e-001
7.6800000000000e-001 2.0561893716793e-001
7.7000000000000e-001 2.0759357675116e-001
7.7200000000000e-001 2.0957764243978e-001
7.7400000000000e-001 2.1157037352313e-001
7.7600000000000e-001 2.1357100096023e-001
7.7800000000000e-001 2.1557874732456e-001
7.8000000000000e-001 2.1759282675230e-001
7.8200000000000e-001 2.1961244489408e-001
7.8400000000000e-001 2.2163679887034e-001
7.8600000000000e-001 2.2366507723030e-001
7.8800000000000e-001 2.2569645991462e-001
7.9000000000000e-001 2.2773011822175e-001
7.9200000000000e-001 2.2976521477805e-001
7.9400000000000e-001 2.3180090351173e-001
7.9600000000000e-001 2.3383632963068e-001
7.9800000000000e-001 2.3587062960408e-001
8.0000000000000e-001 2.3790293114815e-001
8.0200000000000e-001 2.3993235321568e-001
8.0400000000000e-001 2.4195800598977e-001
8.0600000000000e-001 2.4397899088157e-001
8.0800000000000e-001 2.4599440053218e-001
8.1000000000000e-001 2.4800331881866e-001
8.1200000000000e-001 2.5000482086440e-001
8.1400000000000e-001 2.5199797305358e-001
8.1600000000000e-001 2.5398183305008e-001
8.1800000000000e-001 2.5595544982067e-001
8.2000000000000e-001 2.5791786366258e-001
8.2200000000000e-001 2.5986810623560e-001
8.2400000000000e-001 2.6180520059855e-001
8.2600000000000e-001 2.6372816125030e-001
8.2800000000000e-001 2.6563599417546e-001
8.3000000000000e-001 2.6752769689450e-001
8.3200000000000e-001 2.6940225851863e-001
8.3400000000000e-001 2.7125865980935e-001
8.3600000000000e-001 2.7309587324272e-001
8.3800000000000e-001 2.7491286307832e-001
8.4000000000000e-001 2.7670858543314e-001
8.4200000000000e-001 2.7848198836019e-001
8.4400000000000e-001 2.8023201193203e-001
8.4600000000000e-001 2.8195758832924e-001
8.4800000000000e-001 2.8365764193373e-001
8.5000000000000e-001 2.8533108942715e-001
8.5200000000000e-001 2.8697683989420e-001
8.5400000000000e-001 2.8859379493103e-001
8.5600000000000e-001 2.9018084875874e-001
8.5800000000000e-001 2.9173688834190e-001
8.6000000000000e-001 2.9326079351225e-001
8.6200000000000e-001 2.9475143709753e-001
8.6400000000000e-001 2.9620768505553e-001
8.6600000000000e-001 2.9762839661330e-001
8.6800000000000e-001 2.9901242441162e-001
8.7000000000000e-001 3.0035861465470e-001
8.7200000000000e-001 3.0166580726517e-001
8.7400000000000e-001 3.0293283604437e-001
8.7600000000000e-001 3.0415852883793e-001
8.7800000000000e-001 3.0534170770672e-001
8.8000000000000e-001 3.0648118910309e-001
8.8200000000000e-001 3.0757578405254e-001
8.8400000000000e-001 3.0862429834072e-001
8.8600000000000e-001 3.0962553270582e-001
8.8800000000000e-001 3.1057828303639e-001
8.9000000000000e-001 3.1148134057453e-001
8.9200000000000e-001 3.1233349212454e-001
8.9400000000000e-001 3.1313352026694e-001
8.9600000000000e-001 3.1388020357794e-001
8.9800000000000e-001 3.1457231685439e-001
9.0000000000000e-001 3.1520863134403e-001
9.0200000000000e-001 3.1578791498133e-001
9.0400000000000e-001 3.1630893262862e-001
9.0600000000000e-001 3.1677044632274e-001
9.0800000000000e-001 3.1717121552706e-001
9.1000000000000e-001 3.1750999738890e-001
9.1200000000000e-001 3.1778554700240e-001
9.1400000000000e-001 3.1799661767677e-001
9.1600000000000e-001 3.1814196120985e-001
9.1800000000000e-001 3.1822032816713e-001
9.2000000000000e-001 3.1823046816605e-001
9.2200000000000e-001 3.1817113016567e-001
9.2400000000000e-001 3.1804106276161e-001
9.2600000000000e-001 3.1783901448632e-001
9.2800000000000e-001 3.1756373411460e-001
9.3000000000000e-001 3.1721397097428e-001
9.3200000000000e-001 3.1678847526228e-001
9.3400000000000e-001 3.1628599836564e-001
9.3600000000000e-001 3.1570529318788e-001
9.3800000000000e-001 3.1504511448035e-001
9.4000000000000e-001 3.1430421917874e-001
9.4200000000000e-001 3.1348136674453e-001
9.4400000000000e-001 3.1257531951157e-001
9.4600000000000e-001 3.1158484303750e-001
9.4800000000000e-001 3.1050870646013e-001
9.5000000000000e-001 3.0934568285872e-001
9.5200000000000e-001 3.0809454962001e-001
9.5400000000000e-001 3.0675408880908e-001
9.5600000000000e-001 3.0532308754487e-001
9.5800000000000e-001 3.0380033838042e-001
9.6000000000000e-001 3.0218463968766e-001
9.6200000000000e-001 3.0047479604679e-001
9.6400000000000e-001 2.9866961864011e-001
9.6600000000000e-001 2.9676792565031e-001
9.6800000000000e-001 2.9476854266305e-001
9.7000000000000e-001 2.9267030307396e-001
9.7200000000000e-001 2.9047204849968e-001
9.7400000000000e-001 2.8817262919323e-001
9.7600000000000e-001 2.8577090446334e-001
9.7800000000000e-001 2.8326574309779e-001
9.8000000000000e-001 2.8065602379078e-001
9.8200000000000e-001 2.7794063557398e-001
9.8400000000000e-001 2.7511847825148e-001
9.8600000000000e-001 2.7218846283838e-001
9.8800000000000e-001 2.6914951200291e-001
9.9000000000000e-001 2.6600056051217e-001
9.9200000000000e-001 2.6274055568121e-001
9.9400000000000e-001 2.5936845782542e-001
9.9600000000000e-001 2.5588324071625e-001
9.9800000000000e-001 2.5228389203994e-001
1.0000000000000e+000 2.4856941385942e-001
1.0020000000000e+000 2.4473882307900e-001
1.0040000000000e+000 2.4079115191209e-001
1.0060000000000e+000 2.3672544835145e-001
1.0080000000000e+000 2.3254077664223e-001
1.0100000000000e+000 2.2823621775746e-001
1.0120000000000e+000 2.2381086987596e-001
1.0140000000000e+000 2.1926384886259e-001
1.0160000000000e+000 2.1459428875068e-001
1.0180000000000e+000 2.0980134222648e-001
1.0200000000000e+000 2.0488418111570e-001
1.0220000000000e+000 1.9984199687177e-001
1.0240000000000e+000 1.9467400106592e-001
1.0260000000000e+000 1.8937942587882e-001
1.0280000000000e+000 1.8395752459373e-001
1.0300000000000e+000 1.7840757209100e-001
1.0320000000000e+000 1.7272886534383e-001
1.0340000000000e+000 1.6692072391512e-001
1.0360000000000e+000 1.6098249045531e-001
1.0380000000000e+000 1.5491353120109e-001
1.0400000000000e+000 1.4871323647485e-001
1.0420000000000e+000 1.4238102118466e-001
1.0440000000000e+000 1.3591632532478e-001
1.0460000000000e+000 1.2931861447648e-001
1.0480000000000e+000 1.2258738030904e-001
1.0500000000000e+000 1.1572214108078e-001
1.0520000000000e+000 1.0872244214009e-001
1.0540000000000e+000 1.0158785642616e-001
1.0560000000000e+000 9.4317984969371e-002
1.0580000000000e+000 8.6912457391224e-002
1.0600000000000e+000 7.9370932403570e-002
1.0620000000000e+000 7.1693098307096e-002
1.0640000000000e+000 6.3878673488875e-002
1.0660000000000e+000 5.5927406918836e-002
1.0680000000000e+000 4.7839078645032e-002
1.0700000000000e+000 3.9613500287538e-002
1.0720000000000e+000 3.1250515530850e-002
1.0740000000000e+000 2.2750000614629e-002
1.0760000000000e+000 1.4111864822646e-002
1.0780000000000e+000 5.3360509697850e-003
1.0800000000000e+000 -3.5774641130549e-003
1.0820000000000e+000 -1.2628669096289e-002
1.0840000000000e+000 -2.1817517671372e-002
1.0860000000000e+000 -3.1143928073061e-002
1.0880000000000e+000 -4.0607782604359e-002
1.0900000000000e+000 -5.0208927164302e-002
1.0920000000000e+000 -5.9947170778718e-002
1.0940000000000e+000 -6.9822285134130e-002
1.0960000000000e+000 -7.9834004114931e-002
1.0980000000000e+000 -8.9982023343993e-002
1.1000000000000e+000 -1.0026599972685e-001
1.1020000000000e+000 -1.1068555099961e-001
1.1040000000000e+000 -1.2124025528073e-001
1.1060000000000e+000 -1.3192965062683e-001
1.1080000000000e+000 -1.4275323459267e-001
1.1100000000000e+000 -1.5371046379540e-001
1.1120000000000e+000 -1.6480075348335e-001
1.1140000000000e+000 -1.7602347710935e-001
1.1160000000000e+000 -1.8737796590884e-001
1.1180000000000e+000 -1.9886350848287e-001
1.1200000000000e+000 -2.1047935038610e-001
1.1220000000000e+000 -2.2222469372007e-001
1.1240000000000e+000 -2.3409869673168e-001
1.1260000000000e+000 -2.4610047341718e-001
1.1280000000000e+000 -2.5822909313183e-001
1.1300000000000e+000 -2.7048358020515e-001
1.1320000000000e+000 -2.8286291356219e-001
1.1340000000000e+000 -2.9536602635076e-001
1.1360000000000e+000 -3.0799180557475e-001
1.1380000000000e+000 -3.2073909173386e-001
1.1400000000000e+000 -3.3360667846963e-001
1.1420000000000e+000 -3.4659331221805e-001
1.1440000000000e+000 -3.5969769186889e-001
1.1460000000000e+000 -3.7291846843180e-001
1.1480000000000e+000 -3.8625424470931e-001
1.1500000000000e+000 -3.9970357497693e-001
1.1520000000000e+000 -4.1326496467044e-001
1.1540000000000e+000 -4.2693687008042e-001
1.1560000000000e+000 -4.4071769805428e-001
1.1580000000000e+000 -4.5460580570574e-001
1.1600000000000e+000 -4.6859950013207e-001
1.1620000000000e+000 -4.8269703813899e-001
1.1640000000000e+000 -4.9689662597355e-001
1.1660000000000e+000 -5.1119641906494e-001
1.1680000000000e+000 -5.2559452177340e-001
1.1700000000000e+000 -5.4008898714744e-001
1.1720000000000e+000 -5.5467781668919e-001
1.1740000000000e+000 -5.6935896012836e-001
1.1760000000000e+000 -5.8413031520456e-001
1.1780000000000e+000 -5.9898972745833e-001
1.1800000000000e+000 -6.1393499003087e-001
1.1820000000000e+000 -6.2896384347249e-001
1.1840000000000e+000 -6.4407397556007e-001
1.1860000000000e+000 -6.5926302112341e-001
1.1880000000000e+000 -6.7452856188071e-001
1.1900000000000e+000 -6.8986812628316e-001
1.1920000000000e+000 -7.0527918936881e-001
1.1940000000000e+000 -7.2075917262566e-001
1.1960000000000e+000 -7.3630544386430e-001
1.1980000000000e+000 -7.5191531709984e-001
1.2000000000000e+000 -7.6758605244348e-001
1.2020000000000e+000 -7.8331485600367e-001
1.2040000000000e+000 -7.9909887979693e-001
1.2060000000000e+000 -8.1493522166837e-001
1.2080000000000e+000 -8.3082092522209e-001
1.2100000000000e+000 -8.4675297976134e-001
1.2120000000000e+000 -8.6272832023865e-001
1.2140000000000e+000 -8.7874382721593e-001
1.2160000000000e+000 -8.9479632683452e-001
1.2180000000000e+000 -9.1088259079540e-001
1.2200000000000e+000 -9.2699933634938e-001
1.2220000000000e+000 -9.4314322629759e-001
1.2240000000000e+000 -9.5931086900203e-001
1.2260000000000e+000 -9.7549881840643e-001
1.2280000000000e+000 -9.9170357406732e-001
1.2300000000000e+000 -1.0079215811954e+000
1.2320000000000e+000 -1.0241492307075e+000
1.2340000000000e+000 -1.0403828592881e+000
1.2360000000000e+000 -1.0566187494623e+000
1.2380000000000e+000 -1.0728531296784e+000
1.2400000000000e+000 -1.0890821744013e+000
1.2420000000000e+000 -1.1053020042161e+000
1.2440000000000e+000 -1.1215086859421e+000
1.2460000000000e+000 -1.1376982327576e+000
1.2480000000000e+000 -1.1538666043349e+000
1.2500000000000e+000 -1.1700097069858e+000
1.2520000000000e+000 -1.1861233938175e+000
1.2540000000000e+000 -1.2022034648993e+000
1.2560000000000e+000 -1.2182456674395e+000
1.2580000000000e+000 -1.2342456959727e+000
1.2600000000000e+000 -1.2501991925577e+000
1.2620000000000e+000 -1.2661017469861e+000
1.2640000000000e+000 -1.2819488970009e+000
1.2660000000000e+000 -1.2977361285258e+000
1.2680000000000e+000 -1.3134588759048e+000
1.2700000000000e+000 -1.3291125221526e+000
1.2720000000000e+000 -1.3446923992145e+000
1.2740000000000e+000 -1.3601937882376e+000
1.2760000000000e+000 -1.3756119198521e+000
1.2780000000000e+000 -1.3909419744625e+000
1.2800000000000e+000 -1.4061790825494e+000
1.2820000000000e+000 -1.4213183249817e+000
1.2840000000000e+000 -1.4363547333388e+000
1.2860000000000e+000 -1.4512832902431e+000
1.2880000000000e+000 -1.4660989297027e+000
1.2900000000000e+000 -1.4807965374639e+000
1.2920000000000e+000 -1.4953709513745e+000
1.2940000000000e+000 -1.5098169617564e+000
1.2960000000000e+000 -1.5241293117888e+000
1.2980000000000e+000 -1.5383026979009e+000
1.3000000000000e+000 -1.5523317701749e+000
1.3020000000000e+000 -1.5662111327588e+000
1.3040000000000e+000 -1.5799353442887e+000
1.3060000000000e+000 -1.5934989183218e+000
1.3080000000000e+000 -1.6068963237781e+000
1.3100000000000e+000 -1.6201219853922e+000
1.3120000000000e+000 -1.6331702841754e+000
1.3140000000000e+000 -1.6460355578862e+000
1.3160000000000e+000 -1.6587121015115e+000
1.3180000000000e+000 -1.6711941677569e+000
1.3200000000000e+000 -1.6834759675458e+000
1.3220000000000e+000 -1.6955516705293e+000
1.3240000000000e+000 -1.7074154056041e+000
1.3260000000000e+000 -1.7190612614409e+000
1.3280000000000e+000 -1.7304832870209e+000
1.3300000000000e+000 -1.7416754921826e+000
1.3320000000000e+000 -1.7526318481770e+000
1.3340000000000e+000 -1.7633462882321e+000
1.3360000000000e+000 -1.7738127081273e+000
1.3380000000000e+000 -1.7840249667750e+000
1.3400000000000e+000 -1.7939768868132e+000
1.3420000000000e+000 -1.8036622552056e+000
1.3440000000000e+000 -1.8130748238515e+000
1.3460000000000e+000 -1.8222083102035e+000
1.3480000000000e+000 -1.8310563978952e+000
1.3500000000000e+000 -1.8396127373769e+000
1.3520000000000e+000 -1.8478709465602e+000
1.3540000000000e+000 -1.8558246114708e+000
1.3560000000000e+000 -1.8634672869113e+000
1.3580000000000e+000 -1.8707924971307e+000
1.3600000000000e+000 -1.8777937365040e+000
1.3620000000000e+000 -1.8844644702195e+000
1.3640000000000e+000 -1.8907981349751e+000
1.3660000000000e+000 -1.8967881396823e+000
1.3680000000000e+000 -1.9024278661796e+000
1.3700000000000e+000 -1.9077106699537e+000
1.3720000000000e+000 -1.9126298808690e+000
1.3740000000000e+000 -1.9171788039058e+000
1.3760000000000e+000 -1.9213507199068e+000
1.3780000000000e+000 -1.9251388863318e+000
1.3800000000000e+000 -1.9285365380206e+000
1.3820000000000e+000 -1.9315368879647e+000
1.3840000000000e+000 -1.9341331280866e+000
1.3860000000000e+000 -1.9363184300279e+000
1.3880000000000e+000 -1.9380859459457e+000
1.3900000000000e+000 -1.9394288093168e+000
1.3920000000000e+000 -1.9403401357511e+000
1.3940000000000e+000 -1.9408130238122e+000
1.3960000000000e+000 -1.9408405558473e+000
1.3980000000000e+000 -1.9404157988249e+000
1.4000000000000e+000 -1.9395318051809e+000
1.4020000000000e+000 -1.9381816136736e+000
1.4040000000000e+000 -1.9363582502462e+000
1.4060000000000e+000 -1.9340547288990e+000
1.4080000000000e+000 -1.9312640525686e+000
1.4100000000000e+000 -1.9279792140170e+000
1.4120000000000e+000 -1.9241931967286e+000
1.4140000000000e+000 -1.9198989758158e+000