TITLE = "FUNC"
VARIABLES = "X", "F"
ZONE I=1001, F=POINT
0.0000000000000e+000 1.0000000000000e+000
2.0000000000000e-003 9.8713002396243e-001
4.0000000000000e-003 9.7441718386379e-001
6.0000000000000e-003 9.6185965862851e-001
8.0000000000000e-003 9.4945564695244e-001
1.0000000000000e-002 9.3720336710333e-001
1.2000000000000e-002 9.2510105672327e-001
1.4000000000000e-002 9.1314697263293e-001
1.6000000000000e-002 9.0133939063767e-001
1.8000000000000e-002 8.8967660533552e-001
2.0000000000000e-002 8.7815692992695e-001
2.2000000000000e-002 8.6677869602645e-001
2.4000000000000e-002 8.5554025347589e-001
2.6000000000000e-002 8.4443997015966e-001
2.8000000000000e-002 8.3347623182159e-001
3.0000000000000e-002 8.2264744188352e-001
3.2000000000000e-002 8.1195202126572e-001
3.4000000000000e-002 8.0138840820894e-001
3.6000000000000e-002 7.9095505809811e-001
3.8000000000000e-002 7.8065044328788e-001
4.0000000000000e-002 7.7047305292962e-001
4.2000000000000e-002 7.6042139280022e-001
4.4000000000000e-002 7.5049398513250e-001
4.6000000000000e-002 7.4068936844715e-001
4.8000000000000e-002 7.3100609738639e-001
5.0000000000000e-002 7.2144274254916e-001
5.2000000000000e-002 7.1199789032790e-001
5.4000000000000e-002 7.0267014274692e-001
5.6000000000000e-002 6.9345811730226e-001
5.8000000000000e-002 6.8436044680316e-001
6.0000000000000e-002 6.7537577921501e-001
6.2000000000000e-002 6.6650277750382e-001
6.4000000000000e-002 6.5774011948219e-001
6.6000000000000e-002 6.4908649765676e-001
6.8000000000000e-002 6.4054061907715e-001
7.0000000000000e-002 6.3210120518632e-001
7.2000000000000e-002 6.2376699167240e-001
7.4000000000000e-002 6.1553672832197e-001
7.6000000000000e-002 6.0740917887474e-001
7.8000000000000e-002 5.9938312087962e-001
8.0000000000000e-002 5.9145734555222e-001
8.2000000000000e-002 5.8363065763370e-001
8.4000000000000e-002 5.7590187525105e-001
8.6000000000000e-002 5.6826982977862e-001
8.8000000000000e-002 5.6073336570115e-001
9.0000000000000e-002 5.5329134047796e-001
9.2000000000000e-002 5.4594262440862e-001
9.4000000000000e-002 5.3868610049983e-001
9.6000000000000e-002 5.3152066433365e-001
9.8000000000000e-002 5.2444522393698e-001
1.0000000000000e-001 5.1745869965237e-001
1.0200000000000e-001 5.1056002401004e-001
1.0400000000000e-001 5.0374814160119e-001
1.0600000000000e-001 4.9702200895253e-001
1.0800000000000e-001 4.9038059440207e-001
1.1000000000000e-001 4.8382287797611e-001
1.1200000000000e-001 4.7734785126744e-001
1.1400000000000e-001 4.7095451731475e-001
1.1600000000000e-001 4.6464189048323e-001
1.1800000000000e-001 4.5840899634633e-001
1.2000000000000e-001 4.5225487156869e-001
1.2200000000000e-001 4.4617856379029e-001
1.2400000000000e-001 4.4017913151162e-001
1.2600000000000e-001 4.3425564398011e-001
1.2800000000000e-001 4.2840718107764e-001
1.3000000000000e-001 4.2263283320913e-001
1.3200000000000e-001 4.1693170119228e-001
1.3400000000000e-001 4.1130289614841e-001
1.3600000000000e-001 4.0574553939438e-001
1.3800000000000e-001 4.0025876233554e-001
1.4000000000000e-001 3.9484170635981e-001
1.4200000000000e-001 3.8949352273279e-001
1.4400000000000e-001 3.8421337249392e-001
1.4600000000000e-001 3.7900042635368e-001
1.4800000000000e-001 3.7385386459179e-001
1.5000000000000e-001 3.6877287695652e-001
1.5200000000000e-001 3.6375666256484e-001
1.5400000000000e-001 3.5880442980379e-001
1.5600000000000e-001 3.5391539623265e-001
1.5800000000000e-001 3.4908878848619e-001
1.6000000000000e-001 3.4432384217888e-001
1.6200000000000e-001 3.3961980181004e-001
1.6400000000000e-001 3.3497592067000e-001
1.6600000000000e-001 3.3039146074712e-001
1.6800000000000e-001 3.2586569263583e-001
1.7000000000000e-001 3.2139789544554e-001
1.7200000000000e-001 3.1698735671054e-001
1.7400000000000e-001 3.1263337230071e-001
1.7600000000000e-001 3.0833524633324e-001
1.7800000000000e-001 3.0409229108517e-001
1.8000000000000e-001 2.9990382690687e-001
1.8200000000000e-001 2.9576918213633e-001
1.8400000000000e-001 2.9168769301439e-001
1.8600000000000e-001 2.8765870360083e-001
1.8800000000000e-001 2.8368156569123e-001
1.9000000000000e-001 2.7975563873476e-001
1.9200000000000e-001 2.7588028975279e-001
1.9400000000000e-001 2.7205489325832e-001
1.9600000000000e-001 2.6827883117621e-001
1.9800000000000e-001 2.6455149276428e-001
2.0000000000000e-001 2.6087227453515e-001
2.0200000000000e-001 2.5724058017892e-001
2.0400000000000e-001 2.5365582048667e-001
2.0600000000000e-001 2.5011741327462e-001
2.0800000000000e-001 2.4662478330925e-001
2.1000000000000e-001 2.4317736223300e-001
2.1200000000000e-001 2.3977458849090e-001
2.1400000000000e-001 2.3641590725779e-001
2.1600000000000e-001 2.3310077036643e-001
2.1800000000000e-001 2.2982863623627e-001
2.2000000000000e-001 2.2659896980294e-001
2.2200000000000e-001 2.2341124244854e-001
2.2400000000000e-001 2.2026493193254e-001
2.2600000000000e-001 2.1715952232350e-001
2.2800000000000e-001 2.1409450393143e-001
2.3000000000000e-001 2.1106937324082e-001
2.3200000000000e-001 2.0808363284442e-001
2.3400000000000e-001 2.0513679137771e-001
2.3600000000000e-001 2.0222836345395e-001
2.3800000000000e-001 1.9935786960000e-001
2.4000000000000e-001 1.9652483619274e-001
2.4200000000000e-001 1.9372879539618e-001
2.4400000000000e-001 1.9096928509922e-001
2.4600000000000e-001 1.8824584885398e-001
2.4800000000000e-001 1.8555803581487e-001
2.5000000000000e-001 1.8290540067823e-001
2.5200000000000e-001 1.8028750362257e-001
2.5400000000000e-001 1.7770391024951e-001
2.5600000000000e-001 1.7515419152519e-001
2.5800000000000e-001 1.7263792372247e-001
2.6000000000000e-001 1.7015468836352e-001
2.6200000000000e-001 1.6770407216319e-001
2.6400000000000e-001 1.6528566697280e-001
2.6600000000000e-001 1.6289906972465e-001
2.6800000000000e-001 1.6054388237699e-001
2.7000000000000e-001 1.5821971185960e-001
2.7200000000000e-001 1.5592617001996e-001
2.7400000000000e-001 1.5366287356992e-001
2.7600000000000e-001 1.5142944403294e-001
2.7800000000000e-001 1.4922550769188e-001
2.8000000000000e-001 1.4705069553730e-001
2.8200000000000e-001 1.4490464321630e-001
2.8400000000000e-001 1.4278699098194e-001
2.8600000000000e-001 1.4069738364305e-001
2.8800000000000e-001 1.3863547051469e-001
2.9000000000000e-001 1.3660090536901e-001
2.9200000000000e-001 1.3459334638671e-001
2.9400000000000e-001 1.3261245610887e-001
2.9600000000000e-001 1.3065790138941e-001
2.9800000000000e-001 1.2872935334789e-001
3.0000000000000e-001 1.2682648732295e-001
3.0200000000000e-001 1.2494898282605e-001
3.0400000000000e-001 1.2309652349583e-001
3.0600000000000e-001 1.2126879705282e-001
3.0800000000000e-001 1.1946549525467e-001
3.1000000000000e-001 1.1768631385181e-001
3.1200000000000e-001 1.1593095254357e-001
3.1400000000000e-001 1.1419911493471e-001
3.1600000000000e-001 1.1249050849242e-001
3.1800000000000e-001 1.1080484450373e-001
3.2000000000000e-001 1.0914183803337e-001
3.2200000000000e-001 1.0750120788199e-001
3.2400000000000e-001 1.0588267654489e-001
3.2600000000000e-001 1.0428597017107e-001
3.2800000000000e-001 1.0271081852272e-001
3.3000000000000e-001 1.0115695493515e-001
3.3200000000000e-001 9.9624116277053e-002
3.3400000000000e-001 9.8112042911166e-002
3.3600000000000e-001 9.6620478655369e-002
3.3800000000000e-001 9.5149170744108e-002
3.4000000000000e-001 9.3697869790225e-002
3.4200000000000e-001 9.2266329747144e-002
3.4400000000000e-001 9.0854307871432e-002
3.4600000000000e-001 8.9461564685719e-002
3.4800000000000e-001 8.8087863941974e-002
3.5000000000000e-001 8.6732972585137e-002
3.5200000000000e-001 8.5396660717094e-002
3.5400000000000e-001 8.4078701560998e-002
3.5600000000000e-001 8.2778871425932e-002
3.5800000000000e-001 8.1496949671899e-002
3.6000000000000e-001 8.0232718675151e-002
3.6200000000000e-001 7.8985963793832e-002
3.6400000000000e-001 7.7756473333957e-002
3.6600000000000e-001 7.6544038515694e-002
3.6800000000000e-001 7.5348453439964e-002
3.7000000000000e-001 7.4169515055354e-002
3.7200000000000e-001 7.3007023125325e-002
3.7400000000000e-001 7.1860780195726e-002
3.7600000000000e-001 7.0730591562602e-002
3.7800000000000e-001 6.9616265240293e-002
3.8000000000000e-001 6.8517611929819e-002
3.8200000000000e-001 6.7434444987554e-002
3.8400000000000e-001 6.6366580394169e-002
3.8600000000000e-001 6.5313836723863e-002
3.8800000000000e-001 6.4276035113852e-002
3.9000000000000e-001 6.3252999234137e-002
3.9200000000000e-001 6.2244555257527e-002
3.9400000000000e-001 6.1250531829928e-002
3.9600000000000e-001 6.0270760040879e-002
3.9800000000000e-001 5.9305073394350e-002
4.0000000000000e-001 5.8353307779782e-002
4.0200000000000e-001 5.7415301443372e-002
4.0400000000000e-001 5.6490894959599e-002
4.0600000000000e-001 5.5579931202986e-002
4.0800000000000e-001 5.4682255320101e-002
4.1000000000000e-001 5.3797714701778e-002
4.1200000000000e-001 5.2926158955569e-002
4.1400000000000e-001 5.2067439878425e-002
4.1600000000000e-001 5.1221411429581e-002
4.1800000000000e-001 5.0387929703671e-002
4.2000000000000e-001 4.9566852904048e-002
4.2200000000000e-001 4.8758041316314e-002
4.2400000000000e-001 4.7961357282053e-002
4.2600000000000e-001 4.7176665172773e-002
4.2800000000000e-001 4.6403831364037e-002
4.3000000000000e-001 4.5642724209796e-002
4.3200000000000e-001 4.4893214016913e-002
4.3400000000000e-001 4.4155173019874e-002
4.3600000000000e-001 4.3428475355690e-002
4.3800000000000e-001 4.2712997038968e-002
4.4000000000000e-001 4.2008615937183e-002
4.4200000000000e-001 4.1315211746104e-002
4.4400000000000e-001 4.0632665965410e-002
4.4600000000000e-001 3.9960861874468e-002
4.4800000000000e-001 3.9299684508279e-002
4.5000000000000e-001 3.8649020633594e-002
4.5200000000000e-001 3.8008758725181e-002
4.5400000000000e-001 3.7378788942261e-002
4.5600000000000e-001 3.6759003105098e-002
4.5800000000000e-001 3.6149294671732e-002
4.6000000000000e-001 3.5549558714879e-002
4.6200000000000e-001 3.4959691898962e-002
4.6400000000000e-001 3.4379592457299e-002
4.6600000000000e-001 3.3809160169427e-002
4.6800000000000e-001 3.3248296338565e-002
4.7000000000000e-001 3.2696903769221e-002
4.7200000000000e-001 3.2154886744921e-002
4.7400000000000e-001 3.1622151006084e-002
4.7600000000000e-001 3.1098603728015e-002
4.7800000000000e-001 3.0584153499033e-002
4.8000000000000e-001 3.0078710298717e-002
4.8200000000000e-001 2.9582185476278e-002
4.8400000000000e-001 2.9094491729051e-002
4.8600000000000e-001 2.8615543081104e-002
4.8800000000000e-001 2.8145254861959e-002
4.9000000000000e-001 2.7683543685433e-002
4.9200000000000e-001 2.7230327428582e-002
4.9400000000000e-001 2.6785525210759e-002
4.9600000000000e-001 2.6349057372780e-002
4.9800000000000e-001 2.5920845456187e-002
5.0000000000000e-001 2.5500812182622e-002
5.0200000000000e-001 2.5088881433294e-002
5.0400000000000e-001 2.4684978228554e-002
5.0600000000000e-001 2.4289028707556e-002
5.0800000000000e-001 2.3900960108019e-002
5.1000000000000e-001 2.3520700746084e-002
5.1200000000000e-001 2.3148179996256e-002
5.1400000000000e-001 2.2783328271438e-002
5.1600000000000e-001 2.2426077003057e-002
5.1800000000000e-001 2.2076358621267e-002
5.2000000000000e-001 2.1734106535247e-002
5.2200000000000e-001 2.1399255113574e-002
5.2400000000000e-001 2.1071739664678e-002
5.2600000000000e-001 2.0751496417382e-002
5.2800000000000e-001 2.0438462501515e-002
5.3000000000000e-001 2.0132575928604e-002
5.3200000000000e-001 1.9833775572643e-002
5.3400000000000e-001 1.9542001150932e-002
5.3600000000000e-001 1.9257193204993e-002
5.3800000000000e-001 1.8979293081555e-002
5.4000000000000e-001 1.8708242913613e-002
5.4200000000000e-001 1.8443985601551e-002
5.4400000000000e-001 1.8186464794337e-002
5.4600000000000e-001 1.7935624870786e-002
5.4800000000000e-001 1.7691410920884e-002
5.5000000000000e-001 1.7453768727182e-002
5.5200000000000e-001 1.7222644746254e-002
5.5400000000000e-001 1.6997986090216e-002
5.5600000000000e-001 1.6779740508304e-002
5.5800000000000e-001 1.6567856368526e-002
5.6000000000000e-001 1.6362282639361e-002
5.6200000000000e-001 1.6162968871526e-002
5.6400000000000e-001 1.5969865179801e-002
5.6600000000000e-001 1.5782922224911e-002
5.6800000000000e-001 1.5602091195472e-002
5.7000000000000e-001 1.5427323789987e-002
5.7200000000000e-001 1.5258572198904e-002
5.7400000000000e-001 1.5095789086736e-002
5.7600000000000e-001 1.4938927574223e-002
5.7800000000000e-001 1.4787941220570e-002
5.8000000000000e-001 1.4642784005723e-002
5.8200000000000e-001 1.4503410312711e-002
5.8400000000000e-001 1.4369774910047e-002
5.8600000000000e-001 1.4241832934171e-002
5.8800000000000e-001 1.4119539871962e-002
5.9000000000000e-001 1.4002851543303e-002
5.9200000000000e-001 1.3891724083692e-002
5.9400000000000e-001 1.3786113926924e-002
5.9600000000000e-001 1.3685977787819e-002
5.9800000000000e-001 1.3591272645005e-002
6.0000000000000e-001 1.3501955723767e-002
6.0200000000000e-001 1.3417984478943e-002
6.0400000000000e-001 1.3339316577882e-002
6.0600000000000e-001 1.3265909883459e-002
6.0800000000000e-001 1.3197722437149e-002
6.1000000000000e-001 1.3134712442158e-002
6.1200000000000e-001 1.3076838246613e-002
6.1400000000000e-001 1.3024058326814e-002
6.1600000000000e-001 1.2976331270544e-002
6.1800000000000e-001 1.2933615760446e-002
6.2000000000000e-001 1.2895870557454e-002
6.2200000000000e-001 1.2863054484293e-002
6.2400000000000e-001 1.2835126409042e-002
6.2600000000000e-001 1.2812045228762e-002
6.2800000000000e-001 1.2793769853188e-002
6.3000000000000e-001 1.2780259188493e-002
6.3200000000000e-001 1.2771472121114e-002
6.3400000000000e-001 1.2767367501656e-002
6.3600000000000e-001 1.2767904128857e-002
6.3800000000000e-001 1.2773040733635e-002
6.4000000000000e-001 1.2782735963203e-002
6.4200000000000e-001 1.2796948365258e-002
6.4400000000000e-001 1.2815636372255e-002
6.4600000000000e-001 1.2838758285749e-002
6.4800000000000e-001 1.2866272260823e-002
6.5000000000000e-001 1.2898136290598e-002
6.5200000000000e-001 1.2934308190823e-002
6.5400000000000e-001 1.2974745584553e-002
6.5600000000000e-001 1.3019405886915e-002
6.5800000000000e-001 1.3068246289960e-002
6.6000000000000e-001 1.3121223747608e-002
6.6200000000000e-001 1.3178294960687e-002
6.6400000000000e-001 1.3239416362065e-002
6.6600000000000e-001 1.3304544101884e-002
6.6800000000000e-001 1.3373634032885e-002
6.7000000000000e-001 1.3446641695850e-002
6.7200000000000e-001 1.3523522305132e-002
6.7400000000000e-001 1.3604230734301e-002
6.7600000000000e-001 1.3688721501901e-002
6.7800000000000e-001 1.3776948757312e-002
6.8000000000000e-001 1.3868866266735e-002
6.8200000000000e-001 1.3964427399284e-002
6.8400000000000e-001 1.4063585113208e-002
6.8600000000000e-001 1.4166291942232e-002
6.8800000000000e-001 1.4272499982020e-002
6.9000000000000e-001 1.4382160876772e-002
6.9200000000000e-001 1.4495225805948e-002
6.9400000000000e-001 1.4611645471133e-002
6.9600000000000e-001 1.4731370083031e-002
6.9800000000000e-001 1.4854349348606e-002
7.0000000000000e-001 1.4980532458365e-002
7.0200000000000e-001 1.5109868073787e-002
7.0400000000000e-001 1.5242304314907e-002
7.0600000000000e-001 1.5377788748046e-002
7.0800000000000e-001 1.5516268373704e-002
7.1000000000000e-001 1.5657689614617e-002
7.1200000000000e-001 1.5801998303968e-002
7.1400000000000e-001 1.5949139673772e-002
7.1600000000000e-001 1.6099058343437e-002
7.1800000000000e-001 1.6251698308488e-002
7.2000000000000e-001 1.6407002929485e-002
7.2200000000000e-001 1.6564914921108e-002
7.2400000000000e-001 1.6725376341440e-002
7.2600000000000e-001 1.6888328581435e-002
7.2800000000000e-001 1.7053712354584e-002
7.3000000000000e-001 1.7221467686773e-002
7.3200000000000e-001 1.7391533906350e-002
7.3400000000000e-001 1.7563849634394e-002
7.3600000000000e-001 1.7738352775196e-002
7.3800000000000e-001 1.7914980506956e-002
7.4000000000000e-001 1.8093669272692e-002
7.4200000000000e-001 1.8274354771384e-002
7.4400000000000e-001 1.8456971949334e-002
7.4600000000000e-001 1.8641454991760e-002
7.4800000000000e-001 1.8827737314633e-002
7.5000000000000e-001 1.9015751556747e-002
7.5200000000000e-001 1.9205429572032e-002
7.5400000000000e-001 1.9396702422125e-002
7.5600000000000e-001 1.9589500369187e-002
7.5800000000000e-001 1.9783752868982e-002
7.6000000000000e-001 1.9979388564214e-002
7.6200000000000e-001 2.0176335278140e-002
7.6400000000000e-001 2.0374520008446e-002
7.6600000000000e-001 2.0573868921402e-002
7.6800000000000e-001 2.0774307346303e-002
7.7000000000000e-001 2.0975759770188e-002
7.7200000000000e-001 2.1178149832857e-002
7.7400000000000e-001 2.1381400322179e-002
7.7600000000000e-001 2.1585433169696e-002
7.7800000000000e-001 2.1790169446544e-002
7.8000000000000e-001 2.1995529359670e-002
7.8200000000000e-001 2.2201432248372e-002
7.8400000000000e-001 2.2407796581155e-002
7.8600000000000e-001 2.2614539952908e-002
7.8800000000000e-001 2.2821579082415e-002
7.9000000000000e-001 2.3028829810197e-002
7.9200000000000e-001 2.3236207096690e-002
7.9400000000000e-001 2.3443625020771e-002
7.9600000000000e-001 2.3650996778625e-002
7.9800000000000e-001 2.3858234682970e-002
8.0000000000000e-001 2.4065250162639e-002
8.0200000000000e-001 2.4271953762521e-002
8.0400000000000e-001 2.4478255143871e-002
8.0600000000000e-001 2.4684063084992e-002
8.0800000000000e-001 2.4889285482293e-002
8.1000000000000e-001 2.5093829351726e-002
8.1200000000000e-001 2.5297600830613e-002
8.1400000000000e-001 2.5500505179860e-002
8.1600000000000e-001 2.5702446786570e-002
8.1800000000000e-001 2.5903329167049e-002
8.2000000000000e-001 2.6103054970225e-002
8.2200000000000e-001 2.6301525981470e-002
8.2400000000000e-001 2.6498643126837e-002
8.2600000000000e-001 2.6694306477717e-002
8.2800000000000e-001 2.6888415255916e-002
8.3000000000000e-001 2.7080867839162e-002
8.3200000000000e-001 2.7271561767038e-002
8.3400000000000e-001 2.7460393747358e-002
8.3600000000000e-001 2.7647259662975e-002
8.3800000000000e-001 2.7832054579043e-002
8.4000000000000e-001 2.8014672750717e-002
8.4200000000000e-001 2.8195007631312e-002
8.4400000000000e-001 2.8372951880919e-002
8.4600000000000e-001 2.8548397375477e-002
8.4800000000000e-001 2.8721235216314e-002
8.5000000000000e-001 2.8891355740154e-002
8.5200000000000e-001 2.9058648529598e-002
8.5400000000000e-001 2.9223002424079e-002
8.5600000000000e-001 2.9384305531300e-002
8.5800000000000e-001 2.9542445239148e-002
8.6000000000000e-001 2.9697308228106e-002
8.6200000000000e-001 2.9848780484147e-002
8.6400000000000e-001 2.9996747312120e-002
8.6600000000000e-001 3.0141093349639e-002
8.6800000000000e-001 3.0281702581471e-002
8.7000000000000e-001 3.0418458354421e-002
8.7200000000000e-001 3.0551243392728e-002
8.7400000000000e-001 3.0679939813973e-002
8.7600000000000e-001 3.0804429145484e-002
8.7800000000000e-001 3.0924592341278e-002
8.8000000000000e-001 3.1040309799496e-002
8.8200000000000e-001 3.1151461380373e-002
8.8400000000000e-001 3.1257926424725e-002
8.8600000000000e-001 3.1359583772955e-002
8.8800000000000e-001 3.1456311784593e-002
8.9000000000000e-001 3.1547988358355e-002
8.9200000000000e-001 3.1634490952737e-002
8.9400000000000e-001 3.1715696607139e-002
8.9600000000000e-001 3.1791481963522e-002
8.9800000000000e-001 3.1861723288595e-002
9.0000000000000e-001 3.1926296496542e-002
9.0200000000000e-001 3.1985077172284e-002
9.0400000000000e-001 3.2037940595280e-002
9.0600000000000e-001 3.2084761763860e-002
9.0800000000000e-001 3.2125415420106e-002
9.1000000000000e-001 3.2159776075268e-002
9.1200000000000e-001 3.2187718035717e-002
9.1400000000000e-001 3.2209115429442e-002
9.1600000000000e-001 3.2223842233092e-002
9.1800000000000e-001 3.2231772299543e-002
9.2000000000000e-001 3.2232779386024e-002
9.2200000000000e-001 3.2226737182770e-002
9.2400000000000e-001 3.2213519342214e-002
9.2600000000000e-001 3.2192999508726e-002
9.2800000000000e-001 3.2165051348881e-002
9.3000000000000e-001 3.2129548582264e-002
9.3200000000000e-001 3.2086365012816e-002
9.3400000000000e-001 3.2035374560707e-002
9.3600000000000e-001 3.1976451294745e-002
9.3800000000000e-001 3.1909469465309e-002
9.4000000000000e-001 3.1834303537819e-002
9.4200000000000e-001 3.1750828226725e-002
9.4400000000000e-001 3.1658918530019e-002
9.4600000000000e-001 3.1558449764274e-002
9.4800000000000e-001 3.1449297600192e-002
9.5000000000000e-001 3.1331338098680e-002
9.5200000000000e-001 3.1204447747418e-002
9.5400000000000e-001 3.1068503497960e-002
9.5600000000000e-001 3.0923382803315e-002
9.5800000000000e-001 3.0768963656052e-002
9.6000000000000e-001 3.0605124626881e-002
9.6200000000000e-001 3.0431744903744e-002
9.6400000000000e-001 3.0248704331383e-002
9.6600000000000e-001 3.0055883451399e-002
9.6800000000000e-001 2.9853163542784e-002
9.7000000000000e-001 2.9640426662932e-002
9.7200000000000e-001 2.9417555689113e-002
9.7400000000000e-001 2.9184434360417e-002
9.7600000000000e-001 2.8940947320148e-002
9.7800000000000e-001 2.8686980158676e-002
9.8000000000000e-001 2.8422419456729e-002
9.8200000000000e-001 2.8147152829127e-002
9.8400000000000e-001 2.7861068968947e-002
9.8600000000000e-001 2.7564057692113e-002
9.8800000000000e-001 2.7256009982407e-002
9.9000000000000e-001 2.6936818036888e-002
9.9200000000000e-001 2.6606375311714e-002
9.9400000000000e-001 2.6264576568366e-002
9.9600000000000e-001 2.5911317920252e-002
9.9800000000000e-001 2.5546496879696e-002
1.0000000000000e+000 2.5170012405297e-002
1.0020000000000e+000 2.4781764949650e-002
1.0040000000000e+000 2.4381656507419e-002
1.0060000000000e+000 2.3969590663763e-002
1.0080000000000e+000 2.3545472643086e-002
1.0100000000000e+000 2.3109209358121e-002
1.0120000000000e+000 2.2660709459328e-002
1.0140000000000e+000 2.2199883384594e-002
1.0160000000000e+000 2.1726643409239e-002
1.0180000000000e+000 2.1240903696296e-002
1.0200000000000e+000 2.0742580347071e-002
1.0220000000000e+000 2.0231591451971e-002
1.0240000000000e+000 1.9707857141574e-002
1.0260000000000e+000 1.9171299637952e-002
1.0280000000000e+000 1.8621843306218e-002
1.0300000000000e+000 1.8059414706287e-002
1.0320000000000e+000 1.7483942644852e-002
1.0340000000000e+000 1.6895358227548e-002
1.0360000000000e+000 1.6293594911297e-002
1.0380000000000e+000 1.5678588556825e-002
1.0400000000000e+000 1.5050277481330e-002
1.0420000000000e+000 1.4408602511297e-002
1.0440000000000e+000 1.3753507035440e-002
1.0460000000000e+000 1.3084937057759e-002
1.0480000000000e+000 1.2402841250701e-002
1.0500000000000e+000 1.1707171008407e-002
1.0520000000000e+000 1.0997880500034e-002
1.0540000000000e+000 1.0274926723133e-002
1.0560000000000e+000 9.5382695570821e-003
1.0580000000000e+000 8.7878718165335e-003
1.0600000000000e+000 8.0236993048902e-003
1.0620000000000e+000 7.2457208677748e-003
1.0640000000000e+000 6.4539084464852e-003
1.0660000000000e+000 5.6482371314186e-003
1.0680000000000e+000 4.8286852154497e-003
1.0700000000000e+000 3.9952342472452e-003
1.0720000000000e+000 3.1478690844999e-003
1.0740000000000e+000 2.2865779470782e-003
1.0760000000000e+000 1.4113524700434e-003
1.0780000000000e+000 5.2218775655926e-004
1.0800000000000e+000 -3.8091756935382e-004
1.0820000000000e+000 -1.2979613102240e-003
1.0840000000000e+000 -2.2289376427126e-003
1.0860000000000e+000 -3.1738370653951e-003
1.0880000000000e+000 -4.1326463467561e-003
1.0900000000000e+000 -5.1053484734152e-003
1.0920000000000e+000 -6.0919225986023e-003
1.0940000000000e+000 -7.0923439909007e-003
1.0960000000000e+000 -8.1065839832738e-003
1.0980000000000e+000 -9.1346099223968e-003
1.1000000000000e+000 -1.0176385118309e-002
1.1020000000000e+000 -1.1231868794405e-002
1.1040000000000e+000 -1.2301016037788e-002
1.1060000000000e+000 -1.3383777749998e-002
1.1080000000000e+000 -1.4480100598134e-002
1.1100000000000e+000 -1.5589926966397e-002
1.1120000000000e+000 -1.6713194908061e-002
1.1140000000000e+000 -1.7849838097900e-002
1.1160000000000e+000 -1.8999785785089e-002
1.1180000000000e+000 -2.0162962746593e-002
1.1200000000000e+000 -2.1339289241070e-002
1.1220000000000e+000 -2.2528680963302e-002
1.1240000000000e+000 -2.3731048999180e-002
1.1260000000000e+000 -2.4946299781253e-002
1.1280000000000e+000 -2.6174335044873e-002
1.1300000000000e+000 -2.7415051784946e-002
1.1320000000000e+000 -2.8668342213309e-002
1.1340000000000e+000 -2.9934093716762e-002
1.1360000000000e+000 -3.1212188815764e-002
1.1380000000000e+000 -3.2502505123822e-002
1.1400000000000e+000 -3.3804915307582e-002
1.1420000000000e+000 -3.5119287047660e-002
1.1440000000000e+000 -3.6445483000208e-002
1.1460000000000e+000 -3.7783360759261e-002
1.1480000000000e+000 -3.9132772819867e-002
1.1500000000000e+000 -4.0493566542025e-002
1.1520000000000e+000 -4.1865584115457e-002
1.1540000000000e+000 -4.3248662525225e-002
1.1560000000000e+000 -4.4642633518222e-002
1.1580000000000e+000 -4.6047323570544e-002
1.1600000000000e+000 -4.7462553855781e-002
1.1620000000000e+000 -4.8888140214234e-002
1.1640000000000e+000 -5.0323893123076e-002
1.1660000000000e+000 -5.1769617667492e-002
1.1680000000000e+000 -5.3225113512800e-002
1.1700000000000e+000 -5.4690174877586e-002
1.1720000000000e+000 -5.6164590507865e-002
1.1740000000000e+000 -5.7648143652291e-002
1.1760000000000e+000 -5.9140612038439e-002
1.1780000000000e+000 -6.0641767850166e-002
1.1800000000000e+000 -6.2151377706088e-002
1.1820000000000e+000 -6.3669202639180e-002
1.1840000000000e+000 -6.5194998077520e-002
1.1860000000000e+000 -6.6728513826198e-002
1.1880000000000e+000 -6.8269494050416e-002
1.1900000000000e+000 -6.9817677259780e-002
1.1920000000000e+000 -7.1372796293820e-002
1.1940000000000e+000 -7.2934578308751e-002
1.1960000000000e+000 -7.4502744765491e-002
1.1980000000000e+000 -7.6077011418955e-002
1.2000000000000e+000 -7.7657088308646e-002
1.2020000000000e+000 -7.9242679750563e-002
1.2040000000000e+000 -8.0833484330433e-002
1.2060000000000e+000 -8.2429194898297e-002
1.2080000000000e+000 -8.4029498564464e-002
1.2100000000000e+000 -8.5634076696847e-002
1.2120000000000e+000 -8.7242604919699e-002
1.2140000000000e+000 -8.8854753113771e-002
1.2160000000000e+000 -9.0470185417903e-002
1.2180000000000e+000 -9.2088560232065e-002
1.2200000000000e+000 -9.3709530221871e-002
1.2220000000000e+000 -9.5332742324573e-002
1.2240000000000e+000 -9.6957837756554e-002
1.2260000000000e+000 -9.8584452022346e-002
1.2280000000000e+000 -1.0021221492516e-001
1.2300000000000e+000 -1.0184075057900e-001
1.2320000000000e+000 -1.0346967742228e-001
1.2340000000000e+000 -1.0509860823307e-001
1.2360000000000e+000 -1.0672715014590e-001
1.2380000000000e+000 -1.0835490467022e-001
1.2400000000000e+000 -1.0998146771038e-001
1.2420000000000e+000 -1.1160642958734e-001
1.2440000000000e+000 -1.1322937506198e-001
1.2460000000000e+000 -1.1484988336006e-001
1.2480000000000e+000 -1.1646752819889e-001
1.2500000000000e+000 -1.1808187781563e-001
1.2520000000000e+000 -1.1969249499734e-001
1.2540000000000e+000 -1.2129893711268e-001
1.2560000000000e+000 -1.2290075614538e-001
1.2580000000000e+000 -1.2449749872943e-001
1.2600000000000e+000 -1.2608870618593e-001
1.2620000000000e+000 -1.2767391456185e-001
1.2640000000000e+000 -1.2925265467038e-001
1.2660000000000e+000 -1.3082445213316e-001
1.2680000000000e+000 -1.3238882742426e-001
1.2700000000000e+000 -1.3394529591593e-001
1.2720000000000e+000 -1.3549336792614e-001
1.2740000000000e+000 -1.3703254876800e-001
1.2760000000000e+000 -1.3856233880087e-001
1.2780000000000e+000 -1.4008223348340e-001
1.2800000000000e+000 -1.4159172342832e-001
1.2820000000000e+000 -1.4309029445913e-001
1.2840000000000e+000 -1.4457742766857e-001
1.2860000000000e+000 -1.4605259947894e-001
1.2880000000000e+000 -1.4751528170434e-001
1.2900000000000e+000 -1.4896494161465e-001
1.2920000000000e+000 -1.5040104200149e-001
1.2940000000000e+000 -1.5182304124595e-001
1.2960000000000e+000 -1.5323039338825e-001
1.2980000000000e+000 -1.5462254819919e-001
1.3000000000000e+000 -1.5599895125362e-001
1.3020000000000e+000 -1.5735904400558e-001
1.3040000000000e+000 -1.5870226386552e-001
1.3060000000000e+000 -1.6002804427926e-001
1.3080000000000e+000 -1.6133581480890e-001
1.3100000000000e+000 -1.6262500121555e-001
1.3120000000000e+000 -1.6389502554404e-001
1.3140000000000e+000 -1.6514530620936e-001
1.3160000000000e+000 -1.6637525808516e-001
1.3180000000000e+000 -1.6758429259394e-001
1.3200000000000e+000 -1.6877181779927e-001
1.3220000000000e+000 -1.6993723849979e-001
1.3240000000000e+000 -1.7107995632510e-001
1.3260000000000e+000 -1.7219936983356e-001
1.3280000000000e+000 -1.7329487461187e-001
1.3300000000000e+000 -1.7436586337659e-001
1.3320000000000e+000 -1.7541172607746e-001
1.3340000000000e+000 -1.7643185000260e-001
1.3360000000000e+000 -1.7742561988552e-001
1.3380000000000e+000 -1.7839241801399e-001
1.3400000000000e+000 -1.7933162434074e-001
1.3420000000000e+000 -1.8024261659595e-001
1.3440000000000e+000 -1.8112477040162e-001
1.3460000000000e+000 -1.8197745938764e-001
1.3480000000000e+000 -1.8280005530978e-001
1.3500000000000e+000 -1.8359192816937e-001
1.3520000000000e+000 -1.8435244633480e-001
1.3540000000000e+000 -1.8508097666477e-001
1.3560000000000e+000 -1.8577688463332e-001
1.3580000000000e+000 -1.8643953445657e-001
1.3600000000000e+000 -1.8706828922122e-001
1.3620000000000e+000 -1.8766251101477e-001
1.3640000000000e+000 -1.8822156105740e-001
1.3660000000000e+000 -1.8874479983562e-001
1.3680000000000e+000 -1.8923158723753e-001
1.3700000000000e+000 -1.8968128268978e-001
1.3720000000000e+000 -1.9009324529619e-001
1.3740000000000e+000 -1.9046683397793e-001
1.3760000000000e+000 -1.9080140761544e-001
1.3780000000000e+000 -1.9109632519183e-001
1.3800000000000e+000 -1.9135094593796e-001
1.3820000000000e+000 -1.9156462947900e-001
1.3840000000000e+000 -1.9173673598261e-001
1.3860000000000e+000 -1.9186662630860e-001
1.3880000000000e+000 -1.9195366216013e-001
1.3900000000000e+000 -1.9199720623641e-001
1.3920000000000e+000 -1.9199662238679e-001
1.3940000000000e+000 -1.9195127576642e-001
1.3960000000000e+000 -1.9186053299324e-001
1.3980000000000e+000 -1.9172376230644e-001
1.4000000000000e+000 -1.9154033372623e-001
1.4020000000000e+000 -1.9130961921506e-001
1.4040000000000e+000 -1.9103099284014e-001
1.4060000000000e+000 -1.9070383093723e-001
1.4080000000000e+000 -1.9032751227577e-001
1.4100000000000e+000 -1.8990141822530e-001
1.4120000000000e+000 -1.8942493292303e-001
1.4140000000000e+000 -1.8889744344273e-001