TITLE = "FUNC"
VARIABLES = "X", "F"
ZONE I=1001, F=POINT
0.0000000000000e+000 -4.1996051301230e+001
2.0000000000000e-003 -4.2126839453427e+001
4.0000000000000e-003 -4.2244941171277e+001
6.0000000000000e-003 -4.2397028530761e+001
8.0000000000000e-003 -4.2581219614257e+001
1.0000000000000e-002 -4.2795652274719e+001
1.2000000000000e-002 -4.3038484516755e+001
1.4000000000000e-002 -4.3307894470934e+001
1.6000000000000e-002 -4.3602080214311e+001
1.8000000000000e-002 -4.3919259602232e+001
2.0000000000000e-002 -4.4257670207326e+001
2.2000000000000e-002 -4.4615569408157e+001
2.4000000000000e-002 -4.4991234635194e+001
2.6000000000000e-002 -4.5382963757168e+001
2.8000000000000e-002 -4.5789075589886e+001
3.0000000000000e-002 -4.6207910493590e+001
3.2000000000000e-002 -4.6637831037699e+001
3.4000000000000e-002 -4.7077222709191e+001
3.6000000000000e-002 -4.7524494645179e+001
3.8000000000000e-002 -4.7978080378486e+001
4.0000000000000e-002 -4.8436438579658e+001
4.2000000000000e-002 -4.8898053797375e+001
4.4000000000000e-002 -4.9361437182094e+001
4.6000000000000e-002 -4.9825127195202e+001
4.8000000000000e-002 -5.0287690300133e+001
5.0000000000000e-002 -5.0747721630551e+001
5.2000000000000e-002 -5.1203845639447e+001
5.4000000000000e-002 -5.1654716724248e+001
5.6000000000000e-002 -5.2099019829610e+001
5.8000000000000e-002 -5.2535471024906e+001
6.0000000000000e-002 -5.2962818059388e+001
6.2000000000000e-002 -5.3379840891044e+001
6.4000000000000e-002 -5.3785352192248e+001
6.6000000000000e-002 -5.4178197827048e+001
6.8000000000000e-002 -5.4557257307797e+001
7.0000000000000e-002 -5.4921444219813e+001
7.2000000000000e-002 -5.5269706625061e+001
7.4000000000000e-002 -5.5601027435903e+001
7.6000000000000e-002 -5.5914424762715e+001
7.8000000000000e-002 -5.6208952236958e+001
8.0000000000000e-002 -5.6483699303445e+001
8.2000000000000e-002 -5.6737791486405e+001
8.4000000000000e-002 -5.6970390631461e+001
8.6000000000000e-002 -5.7180695113623e+001
8.8000000000000e-002 -5.7367940023645e+001
9.0000000000000e-002 -5.7531397321675e+001
9.2000000000000e-002 -5.7670375967378e+001
9.4000000000000e-002 -5.7784222018631e+001
9.6000000000000e-002 -5.7872318704577e+001
9.8000000000000e-002 -5.7934086469369e+001
1.0000000000000e-001 -5.7968982989598e+001
1.0200000000000e-001 -5.7976503163415e+001
1.0400000000000e-001 -5.7956179071228e+001
1.0600000000000e-001 -5.7907579909811e+001
1.0800000000000e-001 -5.7830311900431e+001
1.1000000000000e-001 -5.7724018166450e+001
1.1200000000000e-001 -5.7588378588880e+001
1.1400000000000e-001 -5.7423109630583e+001
1.1600000000000e-001 -5.7227964138040e+001
1.1800000000000e-001 -5.7002731113920e+001
1.2000000000000e-001 -5.6747235467447e+001
1.2200000000000e-001 -5.6461337736013e+001
1.2400000000000e-001 -5.6144933784974e+001
1.2600000000000e-001 -5.5797954480019e+001
1.2800000000000e-001 -5.5420365337289e+001
1.3000000000000e-001 -5.5012166150836e+001
1.3200000000000e-001 -5.4573390592894e+001
1.3400000000000e-001 -5.4104105796260e+001
1.3600000000000e-001 -5.3604411911323e+001
1.3800000000000e-001 -5.3074441641821e+001
1.4000000000000e-001 -5.2514359761502e+001
1.4200000000000e-001 -5.1924362606370e+001
1.4400000000000e-001 -5.1304677551767e+001
1.4600000000000e-001 -5.0655562465529e+001
1.4800000000000e-001 -4.9977305145055e+001
1.5000000000000e-001 -4.9270222735820e+001
1.5200000000000e-001 -4.8534661131194e+001
1.5400000000000e-001 -4.7770994356378e+001
1.5600000000000e-001 -4.6979623935794e+001
1.5800000000000e-001 -4.6160978245391e+001
1.6000000000000e-001 -4.5315511848665e+001
1.6200000000000e-001 -4.4443704819930e+001
1.6400000000000e-001 -4.3546062053479e+001
1.6600000000000e-001 -4.2623112559759e+001
1.6800000000000e-001 -4.1675408749442e+001
1.7000000000000e-001 -4.0703525706787e+001
1.7200000000000e-001 -3.9708060451171e+001
1.7400000000000e-001 -3.8689631190081e+001
1.7600000000000e-001 -3.7648876560992e+001
1.7800000000000e-001 -3.6586454866483e+001
1.8000000000000e-001 -3.5503043301188e+001
1.8200000000000e-001 -3.4399337170199e+001
1.8400000000000e-001 -3.3276049104192e+001
1.8600000000000e-001 -3.2133908265397e+001
1.8800000000000e-001 -3.0973659551292e+001
1.9000000000000e-001 -2.9796062793574e+001
1.9200000000000e-001 -2.8601891952307e+001
1.9400000000000e-001 -2.7391934309784e+001
1.9600000000000e-001 -2.6166989660209e+001
1.9800000000000e-001 -2.4927869499619e+001
2.0000000000000e-001 -2.3675396214090e+001
2.0200000000000e-001 -2.2410402268386e+001
2.0400000000000e-001 -2.1133729396494e+001
2.0600000000000e-001 -1.9846227791664e+001
2.0800000000000e-001 -1.8548755299968e+001
2.1000000000000e-001 -1.7242176616805e+001
2.1200000000000e-001 -1.5927362485208e+001
2.1400000000000e-001 -1.4605188900257e+001
2.1600000000000e-001 -1.3276536317108e+001
2.1800000000000e-001 -1.1942288864669e+001
2.2000000000000e-001 -1.0603333564452e+001
2.2200000000000e-001 -9.2605595572448e+000
2.2400000000000e-001 -7.9148573359222e+000
2.2600000000000e-001 -6.5671179863003e+000
2.2800000000000e-001 -5.2182324358774e+000
2.3000000000000e-001 -3.8690907117611e+000
2.3200000000000e-001 -2.5205812077544e+000
2.3400000000000e-001 -1.1735899609899e+000
2.3600000000000e-001 1.7100006111104e-001
2.3800000000000e-001 1.5123096628877e+000
2.4000000000000e-001 2.8494641114429e+000
2.4200000000000e-001 4.1815938160994e+000
2.4400000000000e-001 5.5078349950888e+000
2.4600000000000e-001 6.8273303315269e+000
2.4800000000000e-001 8.1392296139571e+000
2.5000000000000e-001 9.4426903656797e+000
2.5200000000000e-001 1.0736878459927e+001
2.5400000000000e-001 1.2020968720134e+001
2.5600000000000e-001 1.3294145507325e+001
2.5800000000000e-001 1.4555603291916e+001
2.6000000000000e-001 1.5804547211173e+001
2.6200000000000e-001 1.7040193611123e+001
2.6400000000000e-001 1.8261770572986e+001
2.6600000000000e-001 1.9468518424881e+001
2.6800000000000e-001 2.0659690236374e+001
2.7000000000000e-001 2.1834552297733e+001
2.7200000000000e-001 2.2992384582810e+001
2.7400000000000e-001 2.4132481195149e+001
2.7600000000000e-001 2.5254150798293e+001
2.7800000000000e-001 2.6356717028442e+001
2.8000000000000e-001 2.7439518891198e+001
2.8200000000000e-001 2.8501911140566e+001
2.8400000000000e-001 2.9543264641690e+001
2.8600000000000e-001 3.0562966716136e+001
2.8800000000000e-001 3.1560421470289e+001
2.9000000000000e-001 3.2535050106225e+001
2.9200000000000e-001 3.3486291216342e+001
2.9400000000000e-001 3.4413601059629e+001
2.9600000000000e-001 3.5316453822098e+001
2.9800000000000e-001 3.6194341859086e+001
3.0000000000000e-001 3.7046775921409e+001
3.0200000000000e-001 3.7873285363949e+001
3.0400000000000e-001 3.8673418337742e+001
3.0600000000000e-001 3.9446741965155e+001
3.0800000000000e-001 4.0192842498454e+001
3.1000000000000e-001 4.0911325462037e+001
3.1200000000000e-001 4.1601815777614e+001
3.1400000000000e-001 4.2263957874294e+001
3.1600000000000e-001 4.2897415781507e+001
3.1800000000000e-001 4.3501873206661e+001
3.2000000000000e-001 4.4077033596934e+001
3.2200000000000e-001 4.4622620185994e+001
3.2400000000000e-001 4.5138376024267e+001
3.2600000000000e-001 4.5624063995761e+001
3.2800000000000e-001 4.6079466818866e+001
3.3000000000000e-001 4.6504387033256e+001
3.3200000000000e-001 4.6898646971882e+001
3.3400000000000e-001 4.7262088719954e+001
3.3600000000000e-001 4.7594574058951e+001
3.3800000000000e-001 4.7895984397917e+001
3.4000000000000e-001 4.8166220691787e+001
3.4200000000000e-001 4.8405203345703e+001
3.4400000000000e-001 4.8612872108098e+001
3.4600000000000e-001 4.8789185950915e+001
3.4800000000000e-001 4.8934122937605e+001
3.5000000000000e-001 4.9047680080086e+001
3.5200000000000e-001 4.9129873184103e+001
3.5400000000000e-001 4.9180736683738e+001
3.5600000000000e-001 4.9200323465198e+001
3.5800000000000e-001 4.9188704680764e+001
3.6000000000000e-001 4.9145969552217e+001
3.6200000000000e-001 4.9072225165162e+001
3.6400000000000e-001 4.8967596254251e+001
3.6600000000000e-001 4.8832224978909e+001
3.6800000000000e-001 4.8666270691528e+001
3.7000000000000e-001 4.8469909696786e+001
3.7200000000000e-001 4.8243335003473e+001
3.7400000000000e-001 4.7986756068957e+001
3.7600000000000e-001 4.7700398536923e+001
3.7800000000000e-001 4.7384503967282e+001
3.8000000000000e-001 4.7039329561724e+001
3.8200000000000e-001 4.6665147881028e+001
3.8400000000000e-001 4.6262246558793e+001
3.8600000000000e-001 4.5830928008778e+001
3.8800000000000e-001 4.5371509127340e+001
3.9000000000000e-001 4.4884320992034e+001
3.9200000000000e-001 4.4369708555453e+001
3.9400000000000e-001 4.3828030335105e+001
3.9600000000000e-001 4.3259658100425e+001
3.9800000000000e-001 4.2664976555681e+001
4.0000000000000e-001 4.2044383020912e+001
4.0200000000000e-001 4.1398287109695e+001
4.0400000000000e-001 4.0727110404731e+001
4.0600000000000e-001 4.0031286132114e+001
4.0800000000000e-001 3.9311258832941e+001
4.1000000000000e-001 3.8567484034691e+001
4.1200000000000e-001 3.7800427920565e+001
4.1400000000000e-001 3.7010566998980e+001
4.1600000000000e-001 3.6198387771760e+001
4.1800000000000e-001 3.5364386402836e+001
4.2000000000000e-001 3.4509068386410e+001
4.2200000000000e-001 3.3632948215734e+001
4.2400000000000e-001 3.2736549052129e+001
4.2600000000000e-001 3.1820402395355e+001
4.2800000000000e-001 3.0885047754087e+001
4.3000000000000e-001 2.9931032318492e+001
4.3200000000000e-001 2.8958910633481e+001
4.3400000000000e-001 2.7969244273868e+001
4.3600000000000e-001 2.6962601521713e+001
4.3800000000000e-001 2.5939557044469e+001
4.4000000000000e-001 2.4900691576610e+001
4.4200000000000e-001 2.3846591602816e+001
4.4400000000000e-001 2.2777849043337e+001
4.4600000000000e-001 2.1695060942656e+001
4.4800000000000e-001 2.0598829160390e+001
4.5000000000000e-001 1.9489760064800e+001
4.5200000000000e-001 1.8368464229798e+001
4.5400000000000e-001 1.7235556134476e+001
4.5600000000000e-001 1.6091653865805e+001
4.5800000000000e-001 1.4937378824770e+001
4.6000000000000e-001 1.3773355435343e+001
4.6200000000000e-001 1.2600210857291e+001
4.6400000000000e-001 1.1418574701522e+001
4.6600000000000e-001 1.0229078749827e+001
4.6800000000000e-001 9.0323566770967e+000
4.7000000000000e-001 7.8290437773576e+000
4.7200000000000e-001 6.6197766935421e+000
4.7400000000000e-001 5.4051931501486e+000
4.7600000000000e-001 4.1859316895905e+000
4.7800000000000e-001 2.9626314121400e+000
4.8000000000000e-001 1.7359317187882e+000
4.8200000000000e-001 5.0647205797327e-001
4.8400000000000e-001 -7.2510832439798e-001
4.8600000000000e-001 -1.9581706324630e+000
4.8800000000000e-001 -3.1920767633586e+000
4.9000000000000e-001 -4.4261895483511e+000
4.9200000000000e-001 -5.6598729895745e+000
4.9400000000000e-001 -6.8924924951086e+000
4.9600000000000e-001 -8.1234151099729e+000
4.9800000000000e-001 -9.3520097447231e+000
5.0000000000000e-001 -1.0577647401505e+001
5.0200000000000e-001 -1.1799701397086e+001
5.0400000000000e-001 -1.3017547583316e+001
5.0600000000000e-001 -1.4230564565093e+001
5.0800000000000e-001 -1.5438133916301e+001
5.1000000000000e-001 -1.6639640393390e+001
5.1200000000000e-001 -1.7834472146205e+001
5.1400000000000e-001 -1.9022020927295e+001
5.1600000000000e-001 -2.0201682299603e+001
5.1800000000000e-001 -2.1372855841639e+001
5.2000000000000e-001 -2.2534945351343e+001
5.2200000000000e-001 -2.3687359048286e+001
5.2400000000000e-001 -2.4829509774588e+001
5.2600000000000e-001 -2.5960815194292e+001
5.2800000000000e-001 -2.7080697991066e+001
5.3000000000000e-001 -2.8188586066236e+001
5.3200000000000e-001 -2.9283912733991e+001
5.3400000000000e-001 -3.0366116917036e+001
5.3600000000000e-001 -3.1434643340905e+001
5.3800000000000e-001 -3.2488942727615e+001
5.4000000000000e-001 -3.3528471989036e+001
5.4200000000000e-001 -3.4552694419182e+001
5.4400000000000e-001 -3.5561079886837e+001
5.4600000000000e-001 -3.6553105027703e+001
5.4800000000000e-001 -3.7528253435393e+001
5.5000000000000e-001 -3.8486015854211e+001
5.5200000000000e-001 -3.9425890369427e+001
5.5400000000000e-001 -4.0347382600003e+001
5.5600000000000e-001 -4.1250005889892e+001
5.5800000000000e-001 -4.2133281499046e+001
5.6000000000000e-001 -4.2996738796264e+001
5.6200000000000e-001 -4.3839915450566e+001
5.6400000000000e-001 -4.4662357624209e+001
5.6600000000000e-001 -4.5463620164166e+001
5.6800000000000e-001 -4.6243266795531e+001
5.7000000000000e-001 -4.7000870314701e+001
5.7200000000000e-001 -4.7736012781768e+001
5.7400000000000e-001 -4.8448285714597e+001
5.7600000000000e-001 -4.9137290282331e+001
5.7800000000000e-001 -4.9802637498847e+001
5.8000000000000e-001 -5.0443948417023e+001
5.8200000000000e-001 -5.1060854322271e+001
5.8400000000000e-001 -5.1652996926721e+001
5.8600000000000e-001 -5.2220028562588e+001
5.8800000000000e-001 -5.2761612376329e+001
5.9000000000000e-001 -5.3277422521564e+001
5.9200000000000e-001 -5.3767144351902e+001
5.9400000000000e-001 -5.4230474613726e+001
5.9600000000000e-001 -5.4667121637542e+001
5.9800000000000e-001 -5.5076805528881e+001
6.0000000000000e-001 -5.5459258359092e+001
6.0200000000000e-001 -5.5814224353079e+001
6.0400000000000e-001 -5.6141460078152e+001
6.0600000000000e-001 -5.6440734629210e+001
6.0800000000000e-001 -5.6711829813871e+001
6.1000000000000e-001 -5.6954540335080e+001
6.1200000000000e-001 -5.7168673971486e+001
6.1400000000000e-001 -5.7354051756386e+001
6.1600000000000e-001 -5.7510508153141e+001
6.1800000000000e-001 -5.7637891228229e+001
6.2000000000000e-001 -5.7736062821584e+001
6.2200000000000e-001 -5.7804898714098e+001
6.2400000000000e-001 -5.7844288789688e+001
6.2600000000000e-001 -5.7854137196195e+001
6.2800000000000e-001 -5.7834362500342e+001
6.3000000000000e-001 -5.7784897839086e+001
6.3200000000000e-001 -5.7705691066834e+001
6.3400000000000e-001 -5.7596704895954e+001
6.3600000000000e-001 -5.7457917034959e+001
6.3800000000000e-001 -5.7289320318330e+001
6.4000000000000e-001 -5.7090922832431e+001
6.4200000000000e-001 -5.6862748034417e+001
6.4400000000000e-001 -5.6604834865082e+001
6.4600000000000e-001 -5.6317237854972e+001
6.4800000000000e-001 -5.6000027222850e+001
6.5000000000000e-001 -5.5653288968227e+001
6.5200000000000e-001 -5.5277124954303e+001
6.5400000000000e-001 -5.4871652984345e+001
6.5600000000000e-001 -5.4437006869579e+001
6.5800000000000e-001 -5.3973336487767e+001
6.6000000000000e-001 -5.3480807833406e+001
6.6200000000000e-001 -5.2959603058761e+001
6.6400000000000e-001 -5.2409920505148e+001
6.6600000000000e-001 -5.1831974724248e+001
6.6800000000000e-001 -5.1225996489851e+001
6.7000000000000e-001 -5.0592232798463e+001
6.7200000000000e-001 -4.9930946860011e+001
6.7400000000000e-001 -4.9242418076939e+001
6.7600000000000e-001 -4.8526942012461e+001
6.7800000000000e-001 -4.7784830347314e+001
6.8000000000000e-001 -4.7016410824496e+001
6.8200000000000e-001 -4.6222027182602e+001
6.8400000000000e-001 -4.5402039076534e+001
6.8600000000000e-001 -4.4556821985870e+001
6.8800000000000e-001 -4.3686767111140e+001
6.9000000000000e-001 -4.2792281256518e+001
6.9200000000000e-001 -4.1873786700446e+001
6.9400000000000e-001 -4.0931721052323e+001
6.9600000000000e-001 -3.9966537096835e+001
6.9800000000000e-001 -3.8978702624003e+001
7.0000000000000e-001 -3.7968700246610e+001
7.0200000000000e-001 -3.6937027203254e+001
7.0400000000000e-001 -3.5884195148509e+001
7.0600000000000e-001 -3.4810729928683e+001
7.0800000000000e-001 -3.3717171344233e+001
7.1000000000000e-001 -3.2604072898339e+001
7.1200000000000e-001 -3.1472001531450e+001
7.1400000000000e-001 -3.0321537342275e+001
7.1600000000000e-001 -2.9153273294976e+001
7.1800000000000e-001 -2.7967814912521e+001
7.2000000000000e-001 -2.6765779956523e+001
7.2200000000000e-001 -2.5547798093512e+001
7.2400000000000e-001 -2.4314510547681e+001
7.2600000000000e-001 -2.3066569740442e+001
7.2800000000000e-001 -2.1804638916714e+001
7.3000000000000e-001 -2.0529391758306e+001
7.3200000000000e-001 -1.9241511984458e+001
7.3400000000000e-001 -1.7941692939786e+001
7.3600000000000e-001 -1.6630637169938e+001
7.3800000000000e-001 -1.5309055985076e+001
7.4000000000000e-001 -1.3977669011636e+001
7.4200000000000e-001 -1.2637203732426e+001
7.4400000000000e-001 -1.1288395015678e+001
7.4600000000000e-001 -9.9319846330883e+000
7.4800000000000e-001 -8.5687207674532e+000
7.5000000000000e-001 -7.1993575100486e+000
7.5200000000000e-001 -5.8246543482783e+000
7.5400000000000e-001 -4.4453756441882e+000
7.5600000000000e-001 -3.0622901037241e+000
7.5800000000000e-001 -1.6761702378298e+000
7.6000000000000e-001 -2.8779181548977e-001
7.6200000000000e-001 1.1020666908363e+000
7.6400000000000e-001 2.4926246668944e+000
7.6600000000000e-001 3.8830999243151e+000
7.6800000000000e-001 5.2727092747227e+000
7.7000000000000e-001 6.6606691091073e+000
7.7200000000000e-001 8.0461959823528e+000
7.7400000000000e-001 9.4285072009539e+000
7.7600000000000e-001 1.0806821416243e+001
7.7800000000000e-001 1.2180359218933e+001
7.8000000000000e-001 1.3548343737457e+001
7.8200000000000e-001 1.4910001237295e+001
7.8400000000000e-001 1.6264561721976e+001
7.8600000000000e-001 1.7611259535255e+001
7.8800000000000e-001 1.8949333961765e+001
7.9000000000000e-001 2.0278029828763e+001
7.9200000000000e-001 2.1596598105037e+001
7.9400000000000e-001 2.2904296498982e+001
7.9600000000000e-001 2.4200390053852e+001
7.9800000000000e-001 2.5484151738697e+001
8.0000000000000e-001 2.6754863036965e+001
8.0200000000000e-001 2.8011814528772e+001
8.0400000000000e-001 2.9254306469828e+001
8.0600000000000e-001 3.0481649362452e+001
8.0800000000000e-001 3.1693164521340e+001
8.1000000000000e-001 3.2888184631735e+001
8.1200000000000e-001 3.4066054299509e+001
8.1400000000000e-001 3.5226130592314e+001
8.1600000000000e-001 3.6367783572966e+001
8.1800000000000e-001 3.7490396821327e+001
8.2000000000000e-001 3.8593367946926e+001
8.2200000000000e-001 3.9676109089892e+001
8.2400000000000e-001 4.0738047410533e+001
8.2600000000000e-001 4.1778625566535e+001
8.2800000000000e-001 4.2797302177683e+001
8.3000000000000e-001 4.3793552276794e+001
8.3200000000000e-001 4.4766867746432e+001
8.3400000000000e-001 4.5716757742786e+001
8.3600000000000e-001 4.6642749102044e+001
8.3800000000000e-001 4.7544386733378e+001
8.4000000000000e-001 4.8421233995482e+001
8.4200000000000e-001 4.9272873055922e+001
8.4400000000000e-001 5.0098905234275e+001
8.4600000000000e-001 5.0898951327927e+001
8.4800000000000e-001 5.1672651920354e+001
8.5000000000000e-001 5.2419667670861e+001
8.5200000000000e-001 5.3139679585978e+001
8.5400000000000e-001 5.3832389272312e+001
8.5600000000000e-001 5.4497519170305e+001
8.5800000000000e-001 5.5134812768337e+001
8.6000000000000e-001 5.5744034797967e+001
8.6200000000000e-001 5.6324971407978e+001
8.6400000000000e-001 5.6877430318347e+001
8.6600000000000e-001 5.7401240956378e+001
8.6800000000000e-001 5.7896254569256e+001
8.7000000000000e-001 5.8362344317359e+001
8.7200000000000e-001 5.8799405346643e+001
8.7400000000000e-001 5.9207354840857e+001
8.7600000000000e-001 5.9586132051648e+001
8.7800000000000e-001 5.9935698308089e+001
8.8000000000000e-001 6.0256037006989e+001
8.8200000000000e-001 6.0547153578505e+001
8.8400000000000e-001 6.0809075434376e+001
8.8600000000000e-001 6.1041851894872e+001
8.8800000000000e-001 6.1245554091538e+001
8.9000000000000e-001 6.1420274854285e+001
8.9200000000000e-001 6.1566128574608e+001
8.9400000000000e-001 6.1683251048716e+001
8.9600000000000e-001 6.1771799302890e+001
8.9800000000000e-001 6.1831951394919e+001
9.0000000000000e-001 6.1863906199444e+001
9.0200000000000e-001 6.1867883172251e+001
9.0400000000000e-001 6.1844122095311e+001
9.0600000000000e-001 6.1792882803224e+001
9.0800000000000e-001 6.1714444890892e+001
9.1000000000000e-001 6.1609107403549e+001
9.1200000000000e-001 6.1477188507852e+001
9.1400000000000e-001 6.1319025146556e+001
9.1600000000000e-001 6.1134972675847e+001
9.1800000000000e-001 6.0925404485712e+001
9.2000000000000e-001 6.0690711603528e+001
9.2200000000000e-001 6.0431302285113e+001
9.2400000000000e-001 6.0147601584348e+001
9.2600000000000e-001 5.9840050915139e+001
9.2800000000000e-001 5.9509107593558e+001
9.3000000000000e-001 5.9155244369613e+001
9.3200000000000e-001 5.8778948943461e+001
9.3400000000000e-001 5.8380723470863e+001
9.3600000000000e-001 5.7961084054814e+001
9.3800000000000e-001 5.7520560227398e+001
9.4000000000000e-001 5.7059694418549e+001
9.4200000000000e-001 5.6579041416094e+001
9.4400000000000e-001 5.6079167815470e+001
9.4600000000000e-001 5.5560651459674e+001
9.4800000000000e-001 5.5024080871102e+001
9.5000000000000e-001 5.4470054675848e+001
9.5200000000000e-001 5.3899181019612e+001
9.5400000000000e-001 5.3312076976286e+001
9.5600000000000e-001 5.2709367953874e+001
9.5800000000000e-001 5.2091687089140e+001
9.6000000000000e-001 5.1459674643262e+001
9.6200000000000e-001 5.0813977389264e+001
9.6400000000000e-001 5.0155247996508e+001
9.6600000000000e-001 4.9484144413747e+001
9.6800000000000e-001 4.8801329247949e+001
9.7000000000000e-001 4.8107469141967e+001
9.7200000000000e-001 4.7403234151533e+001
9.7400000000000e-001 4.6689297120595e+001
9.7600000000000e-001 4.5966333057756e+001
9.7800000000000e-001 4.5235018512668e+001
9.8000000000000e-001 4.4496030954133e+001
9.8200000000000e-001 4.3750048148716e+001
9.8400000000000e-001 4.2997747544515e+001
9.8600000000000e-001 4.2239805654209e+001
9.8800000000000e-001 4.1476897445547e+001
9.9000000000000e-001 4.0709695732999e+001
9.9200000000000e-001 3.9938870574407e+001
9.9400000000000e-001 3.9165088674686e+001
9.9600000000000e-001 3.8389012793905e+001
9.9800000000000e-001 3.7611301160756e+001
1.0000000000000e+000 3.6832606894466e+001
1.0020000000000e+000 3.6053577433193e+001
1.0040000000000e+000 3.5274853970091e+001
1.0060000000000e+000 3.4497070897255e+001
1.0080000000000e+000 3.3720855259378e+001
1.0100000000000e+000 3.2946826215630e+001
1.0120000000000e+000 3.2175594510797e+001
1.0140000000000e+000 3.1407761957203e+001
1.0160000000000e+000 3.0643920927220e+001
1.0180000000000e+000 2.9884653855228e+001
1.0200000000000e+000 2.9130532752275e+001
1.0220000000000e+000 2.8382118730685e+001
1.0240000000000e+000 2.7639961542453e+001
1.0260000000000e+000 2.6904599127797e+001
1.0280000000000e+000 2.6176557178431e+001
1.0300000000000e+000 2.5456348711816e+001
1.0320000000000e+000 2.4744473659799e+001
1.0340000000000e+000 2.4041418470372e+001
1.0360000000000e+000 2.3347655723122e+001
1.0380000000000e+000 2.2663643758996e+001
1.0400000000000e+000 2.1989826323760e+001
1.0420000000000e+000 2.1326632227203e+001
1.0440000000000e+000 2.0674475015581e+001
1.0460000000000e+000 2.0033752660187e+001
1.0480000000000e+000 1.9404847260485e+001
1.0500000000000e+000 1.8788124762859e+001
1.0520000000000e+000 1.8183934694604e+001
1.0540000000000e+000 1.7592609914574e+001
1.0560000000000e+000 1.7014466378140e+001
1.0580000000000e+000 1.6449802919649e+001
1.0600000000000e+000 1.5898901049582e+001
1.0620000000000e+000 1.5362024769511e+001
1.0640000000000e+000 1.4839420401924e+001
1.0660000000000e+000 1.4331316437216e+001
1.0680000000000e+000 1.3837923397819e+001
1.0700000000000e+000 1.3359433717053e+001
1.0720000000000e+000 1.2896021636233e+001
1.0740000000000e+000 1.2447843118240e+001
1.0760000000000e+000 1.2015035777024e+001
1.0780000000000e+000 1.1597718824530e+001
1.0800000000000e+000 1.1195993034091e+001
1.0820000000000e+000 1.0809940720474e+001
1.0840000000000e+000 1.0439625737074e+001
1.0860000000000e+000 1.0085093489376e+001
1.0880000000000e+000 9.7463709653187e+000
1.0900000000000e+000 9.4234667818993e+000
1.0920000000000e+000 9.1163712492017e+000
1.0940000000000e+000 8.8250564498349e+000
1.0960000000000e+000 8.5494763359950e+000
1.0980000000000e+000 8.2895668417069e+000
1.1000000000000e+000 8.0452460125557e+000
1.1020000000000e+000 7.8164141502635e+000
1.1040000000000e+000 7.6029539743119e+000
1.1060000000000e+000 7.4047307991596e+000
1.1080000000000e+000 7.2215927268973e+000
1.1100000000000e+000 7.0533708562968e+000
1.1120000000000e+000 6.8998795065558e+000
1.1140000000000e+000 6.7609164565994e+000
1.1160000000000e+000 6.6362631997996e+000
1.1180000000000e+000 6.5256852133935e+000
1.1200000000000e+000 6.4289322424247e+000
1.1220000000000e+000 6.3457385983678e+000
1.1240000000000e+000 6.2758234725266e+000
1.1260000000000e+000 6.2188912625660e+000
1.1280000000000e+000 6.1746319137690e+000
1.1300000000000e+000 6.1427212731666e+000
1.1320000000000e+000 6.1228214572746e+000
1.1340000000000e+000 6.1145812333407e+000
1.1360000000000e+000 6.1176364120756e+000
1.1380000000000e+000 6.1316102542701e+000
1.1400000000000e+000 6.1561138884616e+000
1.1420000000000e+000 6.1907467410194e+000
1.1440000000000e+000 6.2350969774609e+000
1.1460000000000e+000 6.2887419549766e+000
1.1480000000000e+000 6.3512486856019e+000
1.1500000000000e+000 6.4221743101971e+000
1.1520000000000e+000 6.5010665820653e+000
1.1540000000000e+000 6.5874643603165e+000
1.1560000000000e+000 6.6808981126623e+000
1.1580000000000e+000 6.7808904270774e+000
1.1600000000000e+000 6.8869565314209e+000
1.1620000000000e+000 6.9986048217565e+000
1.1640000000000e+000 7.1153373979449e+000
1.1660000000000e+000 7.2366506058059e+000
1.1680000000000e+000 7.3620355872523e+000
1.1700000000000e+000 7.4909788349911e+000
1.1720000000000e+000 7.6229627541671e+000
1.1740000000000e+000 7.7574662287261e+000
1.1760000000000e+000 7.8939651924625e+000
1.1780000000000e+000 8.0319332044154e+000
1.1800000000000e+000 8.1708420278308e+000
1.1820000000000e+000 8.3101622122137e+000
1.1840000000000e+000 8.4493636783378e+000
1.1860000000000e+000 8.5879163049114e+000
1.1880000000000e+000 8.7252905170558e+000
1.1900000000000e+000 8.8609578755285e+000
1.1920000000000e+000 8.9943916665689e+000
1.1940000000000e+000 9.1250674914627e+000
1.1960000000000e+000 9.2524638553182e+000
1.1980000000000e+000 9.3760627545776e+000
1.2000000000000e+000 9.4953502625810e+000
1.2020000000000e+000 9.6098171126804e+000
1.2040000000000e+000 9.7189592781253e+000
1.2060000000000e+000 9.8222785483730e+000
1.2080000000000e+000 9.9192831010377e+000
1.2100000000000e+000 1.0009488068885e+001
1.2120000000000e+000 1.0092416101414e+001
1.2140000000000e+000 1.0167597920241e+001
1.2160000000000e+000 1.0234572867793e+001
1.2180000000000e+000 1.0292889448680e+001
1.2200000000000e+000 1.0342105863110e+001
1.2220000000000e+000 1.0381790531828e+001
1.2240000000000e+000 1.0411522611838e+001
1.2260000000000e+000 1.0430892502456e+001
1.2280000000000e+000 1.0439502341163e+001
1.2300000000000e+000 1.0436966488277e+001
1.2320000000000e+000 1.0422912000478e+001
1.2340000000000e+000 1.0396979091998e+001
1.2360000000000e+000 1.0358821583470e+001
1.2380000000000e+000 1.0308107337389e+001
1.2400000000000e+000 1.0244518680036e+001
1.2420000000000e+000 1.0167752808980e+001
1.2440000000000e+000 1.0077522185986e+001
1.2460000000000e+000 9.9735549146036e+000
1.2480000000000e+000 9.8555951018877e+000
1.2500000000000e+000 9.7234032038069e+000
1.2520000000000e+000 9.5767563542264e+000
1.2540000000000e+000 9.4154486761919e+000
1.2560000000000e+000 9.2392915761605e+000
1.2580000000000e+000 9.0481140194303e+000
1.2600000000000e+000 8.8417627880228e+000
1.2620000000000e+000 8.6201027187371e+000
1.2640000000000e+000 8.3830169227830e+000
1.2660000000000e+000 8.1304069852184e+000
1.2680000000000e+000 7.8621931448866e+000
1.2700000000000e+000 7.5783144537627e+000
1.2720000000000e+000 7.2787289162464e+000
1.2740000000000e+000 6.9634136072305e+000
1.2760000000000e+000 6.6323647691102e+000
1.2780000000000e+000 6.2855978880534e+000
1.2800000000000e+000 5.9231477484292e+000
1.2820000000000e+000 5.5450684655902e+000
1.2840000000000e+000 5.1514334970664e+000
1.2860000000000e+000 4.7423356318159e+000
1.2880000000000e+000 4.3178869572058e+000
1.2900000000000e+000 3.8782188046262e+000
1.2920000000000e+000 3.4234816720655e+000
1.2940000000000e+000 2.9538451258584e+000
1.2960000000000e+000 2.4694976781534e+000
1.2980000000000e+000 1.9706466451721e+000
1.3000000000000e+000 1.4575179810294e+000
1.3020000000000e+000 9.3035609058356e-001
1.3040000000000e+000 3.8942362126670e-001
1.3060000000000e+000 -1.6499876839848e-001
1.3080000000000e+000 -7.3261266078628e-001
1.3100000000000e+000 -1.3131021519008e+000
1.3120000000000e+000 -1.9061341463846e+000
1.3140000000000e+000 -2.5113586724910e+000
1.3160000000000e+000 -3.1284092178732e+000
1.3180000000000e+000 -3.7569030854332e+000
1.3200000000000e+000 -4.3964417691944e+000
1.3220000000000e+000 -5.0466113492575e+000
1.3240000000000e+000 -5.7069829062231e+000
1.3260000000000e+000 -6.3771129543699e+000
1.3280000000000e+000 -7.0565438922419e+000
1.3300000000000e+000 -7.7448044723818e+000
1.3320000000000e+000 -8.4414102869412e+000
1.3340000000000e+000 -9.1458642709763e+000
1.3360000000000e+000 -9.8576572213624e+000
1.3380000000000e+000 -1.0576268331869e+001
1.3400000000000e+000 -1.1301165742911e+001
1.3420000000000e+000 -1.2031807105461e+001
1.3440000000000e+000 -1.2767640159839e+001
1.3460000000000e+000 -1.3508103326398e+001
1.3480000000000e+000 -1.4252626309053e+001
1.3500000000000e+000 -1.5000630711526e+001
1.3520000000000e+000 -1.5751530663050e+001
1.3540000000000e+000 -1.6504733456102e+001
1.3560000000000e+000 -1.7259640192696e+001
1.3580000000000e+000 -1.8015646439329e+001
1.3600000000000e+000 -1.8772142891754e+001
1.3620000000000e+000 -1.9528516045586e+001
1.3640000000000e+000 -2.0284148872729e+001
1.3660000000000e+000 -2.1038421505415e+001
1.3680000000000e+000 -2.1790711923930e+001
1.3700000000000e+000 -2.2540396649562e+001
1.3720000000000e+000 -2.3286851438598e+001
1.3740000000000e+000 -2.4029451981100e+001
1.3760000000000e+000 -2.4767574600404e+001
1.3780000000000e+000 -2.5500596952444e+001
1.3800000000000e+000 -2.6227898727416e+001
1.3820000000000e+000 -2.6948862347165e+001
1.3840000000000e+000 -2.7662873663625e+001
1.3860000000000e+000 -2.8369322652988e+001
1.3880000000000e+000 -2.9067604107147e+001
1.3900000000000e+000 -2.9757118319151e+001
1.3920000000000e+000 -3.0437271765660e+001
1.3940000000000e+000 -3.1107477782288e+001
1.3960000000000e+000 -3.1767157231521e+001
1.3980000000000e+000 -3.2415739163738e+001
1.4000000000000e+000 -3.3052661470023e+001
1.4020000000000e+000 -3.3677371524266e+001
1.4040000000000e+000 -3.4289326816872e+001
1.4060000000000e+000 -3.4887995575938e+001
1.4080000000000e+000 -3.5472857377039e+001