TITLE = "FUNC"
VARIABLES = "X", "F"
ZONE I=1001, F=POINT
0.0000000000000e+000 4.5044225102800e+001
2.0000000000000e-003 7.0219911242581e+001
4.0000000000000e-003 7.0040645692001e+001
6.0000000000000e-003 6.9862052742969e+001
8.0000000000000e-003 6.9684130509996e+001
1.0000000000000e-002 6.9506877111384e+001
1.2000000000000e-002 6.9330290669222e+001
1.4000000000000e-002 6.9154369309392e+001
1.6000000000000e-002 6.8979111161564e+001
1.8000000000000e-002 6.8804514359198e+001
2.0000000000000e-002 6.8630577039544e+001
2.2000000000000e-002 6.8457297343643e+001
2.4000000000000e-002 6.8284673416325e+001
2.6000000000000e-002 6.8112703406210e+001
2.8000000000000e-002 6.7941385465708e+001
3.0000000000000e-002 6.7770717751018e+001
3.2000000000000e-002 6.7600698422132e+001
3.4000000000000e-002 6.7431325642827e+001
3.6000000000000e-002 6.7262597580675e+001
3.8000000000000e-002 6.7094512407035e+001
4.0000000000000e-002 6.6927068297055e+001
4.2000000000000e-002 6.6760263429677e+001
4.4000000000000e-002 6.6594095987628e+001
4.6000000000000e-002 6.6428564157429e+001
4.8000000000000e-002 6.6263666129388e+001
5.0000000000000e-002 6.6099400097605e+001
5.2000000000000e-002 6.5935764259969e+001
5.4000000000000e-002 6.5772756818159e+001
5.6000000000000e-002 6.5610375977643e+001
5.8000000000000e-002 6.5448619947681e+001
6.0000000000000e-002 6.5287486941321e+001
6.2000000000000e-002 6.5126975175401e+001
6.4000000000000e-002 6.4967082870552e+001
6.6000000000000e-002 6.4807808251190e+001
6.8000000000000e-002 6.4649149545524e+001
7.0000000000000e-002 6.4491104985554e+001
7.2000000000000e-002 6.4333672807066e+001
7.4000000000000e-002 6.4176851249640e+001
7.6000000000000e-002 6.4020638556643e+001
7.8000000000000e-002 6.3865032975233e+001
8.0000000000000e-002 6.3710032756359e+001
8.2000000000000e-002 6.3555636154758e+001
8.4000000000000e-002 6.3401841428958e+001
8.6000000000000e-002 6.3248646841277e+001
8.8000000000000e-002 6.3096050657822e+001
9.0000000000000e-002 6.2944051148491e+001
9.2000000000000e-002 6.2792646586972e+001
9.4000000000000e-002 6.2641835250741e+001
9.6000000000000e-002 6.2491615421067e+001
9.8000000000000e-002 6.2341985383006e+001
1.0000000000000e-001 6.2192943425406e+001
1.0200000000000e-001 6.2044487840903e+001
1.0400000000000e-001 6.1896616925926e+001
1.0600000000000e-001 6.1749328980689e+001
1.0800000000000e-001 6.1602622309202e+001
1.1000000000000e-001 6.1456495219259e+001
1.1200000000000e-001 6.1310946022449e+001
1.1400000000000e-001 6.1165973034147e+001
1.1600000000000e-001 6.1021574573520e+001
1.1800000000000e-001 6.0877748963525e+001
1.2000000000000e-001 6.0734494530907e+001
1.2200000000000e-001 6.0591809606204e+001
1.2400000000000e-001 6.0449692523741e+001
1.2600000000000e-001 6.0308141621635e+001
1.2800000000000e-001 6.0167155241791e+001
1.3000000000000e-001 6.0026731729906e+001
1.3200000000000e-001 5.9886869435466e+001
1.3400000000000e-001 5.9747566711745e+001
1.3600000000000e-001 5.9608821915811e+001
1.3800000000000e-001 5.9470633408518e+001
1.4000000000000e-001 5.9332999554513e+001
1.4200000000000e-001 5.9195918722230e+001
1.4400000000000e-001 5.9059389283895e+001
1.4600000000000e-001 5.8923409615524e+001
1.4800000000000e-001 5.8787978096921e+001
1.5000000000000e-001 5.8653093111683e+001
1.5200000000000e-001 5.8518753047193e+001
1.5400000000000e-001 5.8384956294627e+001
1.5600000000000e-001 5.8251701248950e+001
1.5800000000000e-001 5.8118986308916e+001
1.6000000000000e-001 5.7986809877071e+001
1.6200000000000e-001 5.7855170359749e+001
1.6400000000000e-001 5.7724066167075e+001
1.6600000000000e-001 5.7593495712963e+001
1.6800000000000e-001 5.7463457415117e+001
1.7000000000000e-001 5.7333949695033e+001
1.7200000000000e-001 5.7204970977994e+001
1.7400000000000e-001 5.7076519693074e+001
1.7600000000000e-001 5.6948594273138e+001
1.7800000000000e-001 5.6821193154839e+001
1.8000000000000e-001 5.6694314778622e+001
1.8200000000000e-001 5.6567957588720e+001
1.8400000000000e-001 5.6442120033157e+001
1.8600000000000e-001 5.6316800563747e+001
1.8800000000000e-001 5.6191997636093e+001
1.9000000000000e-001 5.6067709709590e+001
1.9200000000000e-001 5.5943935247420e+001
1.9400000000000e-001 5.5820672716556e+001
1.9600000000000e-001 5.5697920587763e+001
1.9800000000000e-001 5.5575677335593e+001
2.0000000000000e-001 5.5453941438389e+001
2.0200000000000e-001 5.5332711378284e+001
2.0400000000000e-001 5.5211985641202e+001
2.0600000000000e-001 5.5091762716855e+001
2.0800000000000e-001 5.4972041098746e+001
2.1000000000000e-001 5.4852819284168e+001
2.1200000000000e-001 5.4734095774203e+001
2.1400000000000e-001 5.4615869073724e+001
2.1600000000000e-001 5.4498137691393e+001
2.1800000000000e-001 5.4380900139662e+001
2.2000000000000e-001 5.4264154934775e+001
2.2200000000000e-001 5.4147900596763e+001
2.2400000000000e-001 5.4032135649448e+001
2.2600000000000e-001 5.3916858620442e+001
2.2800000000000e-001 5.3802068041147e+001
2.3000000000000e-001 5.3687762446756e+001
2.3200000000000e-001 5.3573940376249e+001
2.3400000000000e-001 5.3460600372399e+001
2.3600000000000e-001 5.3347740981767e+001
2.3800000000000e-001 5.3235360754704e+001
2.4000000000000e-001 5.3123458245353e+001
2.4200000000000e-001 5.3012032011644e+001
2.4400000000000e-001 5.2901080615300e+001
2.4600000000000e-001 5.2790602621830e+001
2.4800000000000e-001 5.2680596600536e+001
2.5000000000000e-001 5.2571061124509e+001
2.5200000000000e-001 5.2461994770630e+001
2.5400000000000e-001 5.2353396119570e+001
2.5600000000000e-001 5.2245263755790e+001
2.5800000000000e-001 5.2137596267540e+001
2.6000000000000e-001 5.2030392246861e+001
2.6200000000000e-001 5.1923650289583e+001
2.6400000000000e-001 5.1817368995328e+001
2.6600000000000e-001 5.1711546967504e+001
2.6800000000000e-001 5.1606182813313e+001
2.7000000000000e-001 5.1501275143745e+001
2.7200000000000e-001 5.1396822573579e+001
2.7400000000000e-001 5.1292823721386e+001
2.7600000000000e-001 5.1189277209526e+001
2.7800000000000e-001 5.1086181664148e+001
2.8000000000000e-001 5.0983535715192e+001
2.8200000000000e-001 5.0881337996389e+001
2.8400000000000e-001 5.0779587145257e+001
2.8600000000000e-001 5.0678281803105e+001
2.8800000000000e-001 5.0577420615035e+001
2.9000000000000e-001 5.0477002229933e+001
2.9200000000000e-001 5.0377025300481e+001
2.9400000000000e-001 5.0277488483147e+001
2.9600000000000e-001 5.0178390438190e+001
2.9800000000000e-001 5.0079729829659e+001
3.0000000000000e-001 4.9981505325393e+001
3.0200000000000e-001 4.9883715597021e+001
3.0400000000000e-001 4.9786359319961e+001
3.0600000000000e-001 4.9689435173422e+001
3.0800000000000e-001 4.9592941840404e+001
3.1000000000000e-001 4.9496878007693e+001
3.1200000000000e-001 4.9401242365869e+001
3.1400000000000e-001 4.9306033609299e+001
3.1600000000000e-001 4.9211250436143e+001
3.1800000000000e-001 4.9116891548347e+001
3.2000000000000e-001 4.9022955651651e+001
3.2200000000000e-001 4.8929441455582e+001
3.2400000000000e-001 4.8836347673458e+001
3.2600000000000e-001 4.8743673022386e+001
3.2800000000000e-001 4.8651416223265e+001
3.3000000000000e-001 4.8559576000782e+001
3.3200000000000e-001 4.8468151083414e+001
3.3400000000000e-001 4.8377140203429e+001
3.3600000000000e-001 4.8286542096884e+001
3.3800000000000e-001 4.8196355503627e+001
3.4000000000000e-001 4.8106579167294e+001
3.4200000000000e-001 4.8017211835313e+001
3.4400000000000e-001 4.7928252258901e+001
3.4600000000000e-001 4.7839699193064e+001
3.4800000000000e-001 4.7751551396599e+001
3.5000000000000e-001 4.7663807632094e+001
3.5200000000000e-001 4.7576466665924e+001
3.5400000000000e-001 4.7489527268257e+001
3.5600000000000e-001 4.7402988213048e+001
3.5800000000000e-001 4.7316848278044e+001
3.6000000000000e-001 4.7231106244781e+001
3.6200000000000e-001 4.7145760898586e+001
3.6400000000000e-001 4.7060811028575e+001
3.6600000000000e-001 4.6976255427654e+001
3.6800000000000e-001 4.6892092892518e+001
3.7000000000000e-001 4.6808322223653e+001
3.7200000000000e-001 4.6724942225335e+001
3.7400000000000e-001 4.6641951705631e+001
3.7600000000000e-001 4.6559349476395e+001
3.7800000000000e-001 4.6477134353272e+001
3.8000000000000e-001 4.6395305155700e+001
3.8200000000000e-001 4.6313860706901e+001
3.8400000000000e-001 4.6232799833893e+001
3.8600000000000e-001 4.6152121367479e+001
3.8800000000000e-001 4.6071824142256e+001
3.9000000000000e-001 4.5991906996608e+001
3.9200000000000e-001 4.5912368772709e+001
3.9400000000000e-001 4.5833208316525e+001
3.9600000000000e-001 4.5754424477811e+001
3.9800000000000e-001 4.5676016110111e+001
4.0000000000000e-001 4.5597982070759e+001
4.0200000000000e-001 4.5520321220880e+001
4.0400000000000e-001 4.5443032425388e+001
4.0600000000000e-001 4.5366114552988e+001
4.0800000000000e-001 4.5289566476173e+001
4.1000000000000e-001 4.5213387071229e+001
4.1200000000000e-001 4.5137575218228e+001
4.1400000000000e-001 4.5062129801035e+001
4.1600000000000e-001 4.4987049707303e+001
4.1800000000000e-001 4.4912333828476e+001
4.2000000000000e-001 4.4837981059789e+001
4.2200000000000e-001 4.4763990300264e+001
4.2400000000000e-001 4.4690360452714e+001
4.2600000000000e-001 4.4617090423744e+001
4.2800000000000e-001 4.4544179123747e+001
4.3000000000000e-001 4.4471625466905e+001
4.3200000000000e-001 4.4399428371192e+001
4.3400000000000e-001 4.4327586758371e+001
4.3600000000000e-001 4.4256099553995e+001
4.3800000000000e-001 4.4184965687406e+001
4.4000000000000e-001 4.4114184091738e+001
4.4200000000000e-001 4.4043753703913e+001
4.4400000000000e-001 4.3973673464643e+001
4.4600000000000e-001 4.3903942318432e+001
4.4800000000000e-001 4.3834559213571e+001
4.5000000000000e-001 4.3765523102143e+001
4.5200000000000e-001 4.3696832940020e+001
4.5400000000000e-001 4.3628487686864e+001
4.5600000000000e-001 4.3560486306128e+001
4.5800000000000e-001 4.3492827765053e+001
4.6000000000000e-001 4.3425511034671e+001
4.6200000000000e-001 4.3358535089803e+001
4.6400000000000e-001 4.3291898909063e+001
4.6600000000000e-001 4.3225601474850e+001
4.6800000000000e-001 4.3159641773358e+001
4.7000000000000e-001 4.3094018794566e+001
4.7200000000000e-001 4.3028731532247e+001
4.7400000000000e-001 4.2963778983962e+001
4.7600000000000e-001 4.2899160151062e+001
4.7800000000000e-001 4.2834874038687e+001
4.8000000000000e-001 4.2770919655770e+001
4.8200000000000e-001 4.2707296015031e+001
4.8400000000000e-001 4.2644002132980e+001
4.8600000000000e-001 4.2581037029919e+001
4.8800000000000e-001 4.2518399729938e+001
4.9000000000000e-001 4.2456089260917e+001
4.9200000000000e-001 4.2394104654528e+001
4.9400000000000e-001 4.2332444946230e+001
4.9600000000000e-001 4.2271109175274e+001
4.9800000000000e-001 4.2210096384700e+001
5.0000000000000e-001 4.2149405621338e+001
5.0200000000000e-001 4.2089035935808e+001
5.0400000000000e-001 4.2028986382521e+001
5.0600000000000e-001 4.1969256019675e+001
5.0800000000000e-001 4.1909843909261e+001
5.1000000000000e-001 4.1850749117059e+001
5.1200000000000e-001 4.1791970712638e+001
5.1400000000000e-001 4.1733507769357e+001
5.1600000000000e-001 4.1675359364366e+001
5.1800000000000e-001 4.1617524578604e+001
5.2000000000000e-001 4.1560002496801e+001
5.2200000000000e-001 4.1502792207476e+001
5.2400000000000e-001 4.1445892802938e+001
5.2600000000000e-001 4.1389303379285e+001
5.2800000000000e-001 4.1333023036407e+001
5.3000000000000e-001 4.1277050877982e+001
5.3200000000000e-001 4.1221386011480e+001
5.3400000000000e-001 4.1166027548159e+001
5.3600000000000e-001 4.1110974603067e+001
5.3800000000000e-001 4.1056226295043e+001
5.4000000000000e-001 4.1001781746716e+001
5.4200000000000e-001 4.0947640084503e+001
5.4400000000000e-001 4.0893800438613e+001
5.4600000000000e-001 4.0840261943044e+001
5.4800000000000e-001 4.0787023735584e+001
5.5000000000000e-001 4.0734084957811e+001
5.5200000000000e-001 4.0681444755093e+001
5.5400000000000e-001 4.0629102276588e+001
5.5600000000000e-001 4.0577056675243e+001
5.5800000000000e-001 4.0525307107797e+001
5.6000000000000e-001 4.0473852734775e+001
5.6200000000000e-001 4.0422692720497e+001
5.6400000000000e-001 4.0371826233070e+001
5.6600000000000e-001 4.0321252444390e+001
5.6800000000000e-001 4.0270970530145e+001
5.7000000000000e-001 4.0220979669812e+001
5.7200000000000e-001 4.0171279046658e+001
5.7400000000000e-001 4.0121867847741e+001
5.7600000000000e-001 4.0072745263906e+001
5.7800000000000e-001 4.0023910489791e+001
5.8000000000000e-001 3.9975362723823e+001
5.8200000000000e-001 3.9927101168217e+001
5.8400000000000e-001 3.9879125028982e+001
5.8600000000000e-001 3.9831433515912e+001
5.8800000000000e-001 3.9784025842595e+001
5.9000000000000e-001 3.9736901226407e+001
5.9200000000000e-001 3.9690058888513e+001
5.9400000000000e-001 3.9643498053871e+001
5.9600000000000e-001 3.9597217951226e+001
5.9800000000000e-001 3.9551217813114e+001
6.0000000000000e-001 3.9505496875861e+001
6.0200000000000e-001 3.9460054379584e+001
6.0400000000000e-001 3.9414889568186e+001
6.0600000000000e-001 3.9370001689365e+001
6.0800000000000e-001 3.9325389994606e+001
6.1000000000000e-001 3.9281053739184e+001
6.1200000000000e-001 3.9236992182165e+001
6.1400000000000e-001 3.9193204586404e+001
6.1600000000000e-001 3.9149690218546e+001
6.1800000000000e-001 3.9106448349027e+001
6.2000000000000e-001 3.9063478252071e+001
6.2200000000000e-001 3.9020779205694e+001
6.2400000000000e-001 3.8978350491700e+001
6.2600000000000e-001 3.8936191395685e+001
6.2800000000000e-001 3.8894301207033e+001
6.3000000000000e-001 3.8852679218919e+001
6.3200000000000e-001 3.8811324728307e+001
6.3400000000000e-001 3.8770237035953e+001
6.3600000000000e-001 3.8729415446400e+001
6.3800000000000e-001 3.8688859267983e+001
6.4000000000000e-001 3.8648567812826e+001
6.4200000000000e-001 3.8608540396843e+001
6.4400000000000e-001 3.8568776339739e+001
6.4600000000000e-001 3.8529274965008e+001
6.4800000000000e-001 3.8490035599933e+001
6.5000000000000e-001 3.8451057575589e+001
6.5200000000000e-001 3.8412340226840e+001
6.5400000000000e-001 3.8373882892339e+001
6.5600000000000e-001 3.8335684914530e+001
6.5800000000000e-001 3.8297745639647e+001
6.6000000000000e-001 3.8260064417712e+001
6.6200000000000e-001 3.8222640602541e+001
6.6400000000000e-001 3.8185473551735e+001
6.6600000000000e-001 3.8148562626689e+001
6.6800000000000e-001 3.8111907192586e+001
6.7000000000000e-001 3.8075506618398e+001
6.7200000000000e-001 3.8039360276890e+001
6.7400000000000e-001 3.8003467544613e+001
6.7600000000000e-001 3.7967827801912e+001
6.7800000000000e-001 3.7932440432918e+001
6.8000000000000e-001 3.7897304825555e+001
6.8200000000000e-001 3.7862420371536e+001
6.8400000000000e-001 3.7827786466363e+001
6.8600000000000e-001 3.7793402509329e+001
6.8800000000000e-001 3.7759267903516e+001
6.9000000000000e-001 3.7725382055797e+001
6.9200000000000e-001 3.7691744376834e+001
6.9400000000000e-001 3.7658354281079e+001
6.9600000000000e-001 3.7625211186776e+001
6.9800000000000e-001 3.7592314515955e+001
7.0000000000000e-001 3.7559663694440e+001
7.0200000000000e-001 3.7527258151842e+001
7.0400000000000e-001 3.7495097321563e+001
7.0600000000000e-001 3.7463180640795e+001
7.0800000000000e-001 3.7431507550521e+001
7.1000000000000e-001 3.7400077495511e+001
7.1200000000000e-001 3.7368889924327e+001
7.1400000000000e-001 3.7337944289322e+001
7.1600000000000e-001 3.7307240046636e+001
7.1800000000000e-001 3.7276776656201e+001
7.2000000000000e-001 3.7246553581740e+001
7.2200000000000e-001 3.7216570290762e+001
7.2400000000000e-001 3.7186826254570e+001
7.2600000000000e-001 3.7157320948254e+001
7.2800000000000e-001 3.7128053850697e+001
7.3000000000000e-001 3.7099024444568e+001
7.3200000000000e-001 3.7070232216329e+001
7.3400000000000e-001 3.7041676656232e+001
7.3600000000000e-001 3.7013357258316e+001
7.3800000000000e-001 3.6985273520413e+001
7.4000000000000e-001 3.6957424944144e+001
7.4200000000000e-001 3.6929811034920e+001
7.4400000000000e-001 3.6902431301940e+001
7.4600000000000e-001 3.6875285258196e+001
7.4800000000000e-001 3.6848372420469e+001
7.5000000000000e-001 3.6821692309328e+001
7.5200000000000e-001 3.6795244449135e+001
7.5400000000000e-001 3.6769028368039e+001
7.5600000000000e-001 3.6743043597981e+001
7.5800000000000e-001 3.6717289674691e+001
7.6000000000000e-001 3.6691766137690e+001
7.6200000000000e-001 3.6666472530288e+001
7.6400000000000e-001 3.6641408399584e+001
7.6600000000000e-001 3.6616573296468e+001
7.6800000000000e-001 3.6591966775621e+001
7.7000000000000e-001 3.6567588395513e+001
7.7200000000000e-001 3.6543437718403e+001
7.7400000000000e-001 3.6519514310342e+001
7.7600000000000e-001 3.6495817741168e+001
7.7800000000000e-001 3.6472347584512e+001
7.8000000000000e-001 3.6449103417793e+001
7.8200000000000e-001 3.6426084822221e+001
7.8400000000000e-001 3.6403291382795e+001
7.8600000000000e-001 3.6380722688305e+001
7.8800000000000e-001 3.6358378331330e+001
7.9000000000000e-001 3.6336257908240e+001
7.9200000000000e-001 3.6314361019193e+001
7.9400000000000e-001 3.6292687268139e+001
7.9600000000000e-001 3.6271236262818e+001
7.9800000000000e-001 3.6250007614758e+001
8.0000000000000e-001 3.6229000939278e+001
8.0200000000000e-001 3.6208215855488e+001
8.0400000000000e-001 3.6187651986287e+001
8.0600000000000e-001 3.6167308958362e+001
8.0800000000000e-001 3.6147186402194e+001
8.1000000000000e-001 3.6127283952051e+001
8.1200000000000e-001 3.6107601245991e+001
8.1400000000000e-001 3.6088137925864e+001
8.1600000000000e-001 3.6068893637309e+001
8.1800000000000e-001 3.6049868029753e+001
8.2000000000000e-001 3.6031060756415e+001
8.2200000000000e-001 3.6012471474304e+001
8.2400000000000e-001 3.5994099844219e+001
8.2600000000000e-001 3.5975945530747e+001
8.2800000000000e-001 3.5958008202267e+001
8.3000000000000e-001 3.5940287530948e+001
8.3200000000000e-001 3.5922783192748e+001
8.3400000000000e-001 3.5905494867414e+001
8.3600000000000e-001 3.5888422238486e+001
8.3800000000000e-001 3.5871564993291e+001
8.4000000000000e-001 3.5854922822947e+001
8.4200000000000e-001 3.5838495422362e+001
8.4400000000000e-001 3.5822282490235e+001
8.4600000000000e-001 3.5806283729053e+001
8.4800000000000e-001 3.5790498845094e+001
8.5000000000000e-001 3.5774927548426e+001
8.5200000000000e-001 3.5759569552907e+001
8.5400000000000e-001 3.5744424576185e+001
8.5600000000000e-001 3.5729492339696e+001
8.5800000000000e-001 3.5714772568670e+001
8.6000000000000e-001 3.5700264992124e+001
8.6200000000000e-001 3.5685969342864e+001
8.6400000000000e-001 3.5671885357490e+001
8.6600000000000e-001 3.5658012776387e+001
8.6800000000000e-001 3.5644351343735e+001
8.7000000000000e-001 3.5630900807499e+001
8.7200000000000e-001 3.5617660919438e+001
8.7400000000000e-001 3.5604631435098e+001
8.7600000000000e-001 3.5591812113818e+001
8.7800000000000e-001 3.5579202718724e+001
8.8000000000000e-001 3.5566803016734e+001
8.8200000000000e-001 3.5554612778554e+001
8.8400000000000e-001 3.5542631778682e+001
8.8600000000000e-001 3.5530859795405e+001
8.8800000000000e-001 3.5519296610800e+001
8.9000000000000e-001 3.5507942010734e+001
8.9200000000000e-001 3.5496795784863e+001
8.9400000000000e-001 3.5485857726636e+001
8.9600000000000e-001 3.5475127633288e+001
8.9800000000000e-001 3.5464605305847e+001
9.0000000000000e-001 3.5454290549129e+001
9.0200000000000e-001 3.5444183171741e+001
9.0400000000000e-001 3.5434282986080e+001
9.0600000000000e-001 3.5424589808333e+001
9.0800000000000e-001 3.5415103458475e+001
9.1000000000000e-001 3.5405823760275e+001
9.1200000000000e-001 3.5396750541288e+001
9.1400000000000e-001 3.5387883632860e+001
9.1600000000000e-001 3.5379222870130e+001
9.1800000000000e-001 3.5370768092022e+001
9.2000000000000e-001 3.5362519141253e+001
9.2200000000000e-001 3.5354475864330e+001
9.2400000000000e-001 3.5346638111549e+001
9.2600000000000e-001 3.5339005736996e+001
9.2800000000000e-001 3.5331578598548e+001
9.3000000000000e-001 3.5324356557870e+001
9.3200000000000e-001 3.5317339480420e+001
9.3400000000000e-001 3.5310527235443e+001
9.3600000000000e-001 3.5303919695975e+001
9.3800000000000e-001 3.5297516738843e+001
9.4000000000000e-001 3.5291318244662e+001
9.4200000000000e-001 3.5285324097839e+001
9.4400000000000e-001 3.5279534186569e+001
9.4600000000000e-001 3.5273948402839e+001
9.4800000000000e-001 3.5268566642424e+001
9.5000000000000e-001 3.5263388804891e+001
9.5200000000000e-001 3.5258414793594e+001
9.5400000000000e-001 3.5253644515681e+001
9.5600000000000e-001 3.5249077882086e+001
9.5800000000000e-001 3.5244714807536e+001
9.6000000000000e-001 3.5240555210547e+001
9.6200000000000e-001 3.5236599013423e+001
9.6400000000000e-001 3.5232846142260e+001
9.6600000000000e-001 3.5229296526945e+001
9.6800000000000e-001 3.5225950101153e+001
9.7000000000000e-001 3.5222806802349e+001
9.7200000000000e-001 3.5219866571789e+001
9.7400000000000e-001 3.5217129354518e+001
9.7600000000000e-001 3.5214595099371e+001
9.7800000000000e-001 3.5212263758976e+001
9.8000000000000e-001 3.5210135289745e+001
9.8200000000000e-001 3.5208209651886e+001
9.8400000000000e-001 3.5206486809392e+001
9.8600000000000e-001 3.5204966730050e+001
9.8800000000000e-001 3.5203649385435e+001
9.9000000000000e-001 3.5202534750912e+001
9.9200000000000e-001 3.5201622805636e+001
9.9400000000000e-001 3.5200913532553e+001
9.9600000000000e-001 3.5200406918396e+001
9.9800000000000e-001 3.5200102953692e+001
1.0000000000000e+000 3.5200001632756e+001
1.0020000000000e+000 3.5200102953692e+001
1.0040000000000e+000 3.5200406918396e+001
1.0060000000000e+000 3.5200913532553e+001
1.0080000000000e+000 3.5201622805636e+001
1.0100000000000e+000 3.5202534750912e+001
1.0120000000000e+000 3.5203649385435e+001
1.0140000000000e+000 3.5204966730050e+001
1.0160000000000e+000 3.5206486809392e+001
1.0180000000000e+000 3.5208209651886e+001
1.0200000000000e+000 3.5210135289745e+001
1.0220000000000e+000 3.5212263758976e+001
1.0240000000000e+000 3.5214595099371e+001
1.0260000000000e+000 3.5217129354518e+001
1.0280000000000e+000 3.5219866571789e+001
1.0300000000000e+000 3.5222806802349e+001
1.0320000000000e+000 3.5225950101153e+001
1.0340000000000e+000 3.5229296526945e+001
1.0360000000000e+000 3.5232846142260e+001
1.0380000000000e+000 3.5236599013423e+001
1.0400000000000e+000 3.5240555210547e+001
1.0420000000000e+000 3.5244714807536e+001
1.0440000000000e+000 3.5249077882086e+001
1.0460000000000e+000 3.5253644515681e+001
1.0480000000000e+000 3.5258414793594e+001
1.0500000000000e+000 3.5263388804891e+001
1.0520000000000e+000 3.5268566642424e+001
1.0540000000000e+000 3.5273948402839e+001
1.0560000000000e+000 3.5279534186569e+001
1.0580000000000e+000 3.5285324097839e+001
1.0600000000000e+000 3.5291318244662e+001
1.0620000000000e+000 3.5297516738843e+001
1.0640000000000e+000 3.5303919695975e+001
1.0660000000000e+000 3.5310527235443e+001
1.0680000000000e+000 3.5317339480420e+001
1.0700000000000e+000 3.5324356557870e+001
1.0720000000000e+000 3.5331578598548e+001
1.0740000000000e+000 3.5339005736996e+001
1.0760000000000e+000 3.5346638111549e+001
1.0780000000000e+000 3.5354475864330e+001
1.0800000000000e+000 3.5362519141253e+001
1.0820000000000e+000 3.5370768092022e+001
1.0840000000000e+000 3.5379222870130e+001
1.0860000000000e+000 3.5387883632860e+001
1.0880000000000e+000 3.5396750541288e+001
1.0900000000000e+000 3.5405823760275e+001
1.0920000000000e+000 3.5415103458475e+001
1.0940000000000e+000 3.5424589808333e+001
1.0960000000000e+000 3.5434282986080e+001
1.0980000000000e+000 3.5444183171741e+001
1.1000000000000e+000 3.5454290549129e+001
1.1020000000000e+000 3.5464605305847e+001
1.1040000000000e+000 3.5475127633288e+001
1.1060000000000e+000 3.5485857726636e+001
1.1080000000000e+000 3.5496795784863e+001
1.1100000000000e+000 3.5507942010734e+001
1.1120000000000e+000 3.5519296610800e+001
1.1140000000000e+000 3.5530859795405e+001
1.1160000000000e+000 3.5542631778682e+001
1.1180000000000e+000 3.5554612778554e+001
1.1200000000000e+000 3.5566803016734e+001
1.1220000000000e+000 3.5579202718724e+001
1.1240000000000e+000 3.5591812113818e+001
1.1260000000000e+000 3.5604631435098e+001
1.1280000000000e+000 3.5617660919438e+001
1.1300000000000e+000 3.5630900807499e+001
1.1320000000000e+000 3.5644351343735e+001
1.1340000000000e+000 3.5658012776387e+001
1.1360000000000e+000 3.5671885357490e+001
1.1380000000000e+000 3.5685969342864e+001
1.1400000000000e+000 3.5700264992124e+001
1.1420000000000e+000 3.5714772568670e+001
1.1440000000000e+000 3.5729492339696e+001
1.1460000000000e+000 3.5744424576185e+001
1.1480000000000e+000 3.5759569552907e+001
1.1500000000000e+000 3.5774927548426e+001
1.1520000000000e+000 3.5790498845094e+001
1.1540000000000e+000 3.5806283729053e+001
1.1560000000000e+000 3.5822282490235e+001
1.1580000000000e+000 3.5838495422362e+001
1.1600000000000e+000 3.5854922822947e+001
1.1620000000000e+000 3.5871564993291e+001
1.1640000000000e+000 3.5888422238486e+001
1.1660000000000e+000 3.5905494867414e+001
1.1680000000000e+000 3.5922783192748e+001
1.1700000000000e+000 3.5940287530948e+001
1.1720000000000e+000 3.5958008202267e+001
1.1740000000000e+000 3.5975945530747e+001
1.1760000000000e+000 3.5994099844219e+001
1.1780000000000e+000 3.6012471474304e+001
1.1800000000000e+000 3.6031060756415e+001
1.1820000000000e+000 3.6049868029753e+001
1.1840000000000e+000 3.6068893637309e+001
1.1860000000000e+000 3.6088137925864e+001
1.1880000000000e+000 3.6107601245991e+001
1.1900000000000e+000 3.6127283952051e+001
1.1920000000000e+000 3.6147186402194e+001
1.1940000000000e+000 3.6167308958362e+001
1.1960000000000e+000 3.6187651986287e+001
1.1980000000000e+000 3.6208215855488e+001
1.2000000000000e+000 3.6229000939278e+001
1.2020000000000e+000 3.6250007614758e+001
1.2040000000000e+000 3.6271236262818e+001
1.2060000000000e+000 3.6292687268139e+001
1.2080000000000e+000 3.6314361019193e+001
1.2100000000000e+000 3.6336257908240e+001
1.2120000000000e+000 3.6358378331330e+001
1.2140000000000e+000 3.6380722688305e+001
1.2160000000000e+000 3.6403291382795e+001
1.2180000000000e+000 3.6426084822221e+001
1.2200000000000e+000 3.6449103417793e+001
1.2220000000000e+000 3.6472347584512e+001
1.2240000000000e+000 3.6495817741168e+001
1.2260000000000e+000 3.6519514310342e+001
1.2280000000000e+000 3.6543437718403e+001
1.2300000000000e+000 3.6567588395513e+001
1.2320000000000e+000 3.6591966775621e+001
1.2340000000000e+000 3.6616573296468e+001
1.2360000000000e+000 3.6641408399584e+001
1.2380000000000e+000 3.6666472530288e+001
1.2400000000000e+000 3.6691766137690e+001
1.2420000000000e+000 3.6717289674691e+001
1.2440000000000e+000 3.6743043597981e+001
1.2460000000000e+000 3.6769028368039e+001
1.2480000000000e+000 3.6795244449135e+001
1.2500000000000e+000 3.6821692309328e+001
1.2520000000000e+000 3.6848372420469e+001
1.2540000000000e+000 3.6875285258196e+001
1.2560000000000e+000 3.6902431301940e+001
1.2580000000000e+000 3.6929811034920e+001
1.2600000000000e+000 3.6957424944144e+001
1.2620000000000e+000 3.6985273520413e+001
1.2640000000000e+000 3.7013357258316e+001
1.2660000000000e+000 3.7041676656232e+001
1.2680000000000e+000 3.7070232216329e+001
1.2700000000000e+000 3.7099024444568e+001
1.2720000000000e+000 3.7128053850697e+001
1.2740000000000e+000 3.7157320948254e+001
1.2760000000000e+000 3.7186826254570e+001
1.2780000000000e+000 3.7216570290762e+001
1.2800000000000e+000 3.7246553581740e+001
1.2820000000000e+000 3.7276776656201e+001
1.2840000000000e+000 3.7307240046636e+001
1.2860000000000e+000 3.7337944289322e+001
1.2880000000000e+000 3.7368889924327e+001
1.2900000000000e+000 3.7400077495511e+001
1.2920000000000e+000 3.7431507550521e+001
1.2940000000000e+000 3.7463180640795e+001
1.2960000000000e+000 3.7495097321563e+001
1.2980000000000e+000 3.7527258151842e+001
1.3000000000000e+000 3.7559663694440e+001
1.3020000000000e+000 3.7592314515955e+001
1.3040000000000e+000 3.7625211186776e+001
1.3060000000000e+000 3.7658354281079e+001
1.3080000000000e+000 3.7691744376834e+001
1.3100000000000e+000 3.7725382055797e+001
1.3120000000000e+000 3.7759267903516e+001
1.3140000000000e+000 3.7793402509329e+001
1.3160000000000e+000 3.7827786466363e+001
1.3180000000000e+000 3.7862420371536e+001
1.3200000000000e+000 3.7897304825555e+001
1.3220000000000e+000 3.7932440432918e+001
1.3240000000000e+000 3.7967827801912e+001
1.3260000000000e+000 3.8003467544613e+001
1.3280000000000e+000 3.8039360276890e+001
1.3300000000000e+000 3.8075506618398e+001
1.3320000000000e+000 3.8111907192586e+001
1.3340000000000e+000 3.8148562626689e+001
1.3360000000000e+000 3.8185473551735e+001
1.3380000000000e+000 3.8222640602541e+001
1.3400000000000e+000 3.8260064417712e+001
1.3420000000000e+000 3.8297745639647e+001
1.3440000000000e+000 3.8335684914530e+001
1.3460000000000e+000 3.8373882892339e+001
1.3480000000000e+000 3.8412340226840e+001
1.3500000000000e+000 3.8451057575589e+001
1.3520000000000e+000 3.8490035599933e+001
1.3540000000000e+000 3.8529274965008e+001
1.3560000000000e+000 3.8568776339739e+001
1.3580000000000e+000 3.8608540396843e+001
1.3600000000000e+000 3.8648567812826e+001
1.3620000000000e+000 3.8688859267983e+001
1.3640000000000e+000 3.8729415446400e+001
1.3660000000000e+000 3.8770237035953e+001
1.3680000000000e+000 3.8811324728307e+001
1.3700000000000e+000 3.8852679218919e+001
1.3720000000000e+000 3.8894301207033e+001
1.3740000000000e+000 3.8936191395685e+001
1.3760000000000e+000 3.8978350491700e+001
1.3780000000000e+000 3.9020779205694e+001
1.3800000000000e+000 3.9063478252071e+001
1.3820000000000e+000 3.9106448349027e+001
1.3840000000000e+000 3.9149690218546e+001
1.3860000000000e+000 3.9193204586404e+001
1.3880000000000e+000 3.9236992182165e+001
1.3900000000000e+000 3.9281053739184e+001
1.3920000000000e+000 3.9325389994606e+001
1.3940000000000e+000 3.9370001689365e+001
1.3960000000000e+000 3.9414889568186e+001
1.3980000000000e+000 3.9460054379584e+001
1.4000000000000e+000 3.9505496875861e+001
1.4020000000000e+000 3.9551217813114e+001
1.4040000000000e+000 3.9597217951226e+001
1.4060000000000e+000 3.9643498053871e+001
1.4080000000000e+000 3.9690058888513e+001
1.4100000000000e+000 3.9736901226407e+001
1.4120000000000e+000 3.9784025842595e+001
1.4140000000000e+000 3.9831433515912e+001
1.4160000000000e+000 3.9879125028982e+001
1.4180000000000e+000 3.9927101168217e+001
1.4200000000000e+000 3.9975362723823e+001
1.4220000000000e+000 4.0023910489791e+001