TITLE = "FUNC"
VARIABLES = "X", "F"
ZONE I=1001, F=POINT
0.0000000000000e+000 4.5044174442208e+001
2.0000000000000e-003 7.0219860581990e+001
4.0000000000000e-003 7.0040595031409e+001
6.0000000000000e-003 6.9862002082377e+001
8.0000000000000e-003 6.9684079849404e+001
1.0000000000000e-002 6.9506826450792e+001
1.2000000000000e-002 6.9330240008630e+001
1.4000000000000e-002 6.9154318648800e+001
1.6000000000000e-002 6.8979060500972e+001
1.8000000000000e-002 6.8804463698606e+001
2.0000000000000e-002 6.8630526378952e+001
2.2000000000000e-002 6.8457246683051e+001
2.4000000000000e-002 6.8284622755733e+001
2.6000000000000e-002 6.8112652745618e+001
2.8000000000000e-002 6.7941334805116e+001
3.0000000000000e-002 6.7770667090426e+001
3.2000000000000e-002 6.7600647761540e+001
3.4000000000000e-002 6.7431274982235e+001
3.6000000000000e-002 6.7262546920083e+001
3.8000000000000e-002 6.7094461746443e+001
4.0000000000000e-002 6.6927017636463e+001
4.2000000000000e-002 6.6760212769085e+001
4.4000000000000e-002 6.6594045327036e+001
4.6000000000000e-002 6.6428513496837e+001
4.8000000000000e-002 6.6263615468796e+001
5.0000000000000e-002 6.6099349437014e+001
5.2000000000000e-002 6.5935713599377e+001
5.4000000000000e-002 6.5772706157567e+001
5.6000000000000e-002 6.5610325317051e+001
5.8000000000000e-002 6.5448569287089e+001
6.0000000000000e-002 6.5287436280729e+001
6.2000000000000e-002 6.5126924514809e+001
6.4000000000000e-002 6.4967032209960e+001
6.6000000000000e-002 6.4807757590598e+001
6.8000000000000e-002 6.4649098884933e+001
7.0000000000000e-002 6.4491054324962e+001
7.2000000000000e-002 6.4333622146474e+001
7.4000000000000e-002 6.4176800589048e+001
7.6000000000000e-002 6.4020587896051e+001
7.8000000000000e-002 6.3864982314641e+001
8.0000000000000e-002 6.3709982095767e+001
8.2000000000000e-002 6.3555585494166e+001
8.4000000000000e-002 6.3401790768366e+001
8.6000000000000e-002 6.3248596180685e+001
8.8000000000000e-002 6.3095999997230e+001
9.0000000000000e-002 6.2944000487899e+001
9.2000000000000e-002 6.2792595926380e+001
9.4000000000000e-002 6.2641784590150e+001
9.6000000000000e-002 6.2491564760475e+001
9.8000000000000e-002 6.2341934722414e+001
1.0000000000000e-001 6.2192892764814e+001
1.0200000000000e-001 6.2044437180312e+001
1.0400000000000e-001 6.1896566265334e+001
1.0600000000000e-001 6.1749278320097e+001
1.0800000000000e-001 6.1602571648610e+001
1.1000000000000e-001 6.1456444558667e+001
1.1200000000000e-001 6.1310895361857e+001
1.1400000000000e-001 6.1165922373555e+001
1.1600000000000e-001 6.1021523912928e+001
1.1800000000000e-001 6.0877698302933e+001
1.2000000000000e-001 6.0734443870315e+001
1.2200000000000e-001 6.0591758945612e+001
1.2400000000000e-001 6.0449641863149e+001
1.2600000000000e-001 6.0308090961043e+001
1.2800000000000e-001 6.0167104581200e+001
1.3000000000000e-001 6.0026681069314e+001
1.3200000000000e-001 5.9886818774874e+001
1.3400000000000e-001 5.9747516051154e+001
1.3600000000000e-001 5.9608771255219e+001
1.3800000000000e-001 5.9470582747926e+001
1.4000000000000e-001 5.9332948893921e+001
1.4200000000000e-001 5.9195868061638e+001
1.4400000000000e-001 5.9059338623303e+001
1.4600000000000e-001 5.8923358954932e+001
1.4800000000000e-001 5.8787927436330e+001
1.5000000000000e-001 5.8653042451091e+001
1.5200000000000e-001 5.8518702386601e+001
1.5400000000000e-001 5.8384905634035e+001
1.5600000000000e-001 5.8251650588358e+001
1.5800000000000e-001 5.8118935648324e+001
1.6000000000000e-001 5.7986759216479e+001
1.6200000000000e-001 5.7855119699157e+001
1.6400000000000e-001 5.7724015506483e+001
1.6600000000000e-001 5.7593445052371e+001
1.6800000000000e-001 5.7463406754526e+001
1.7000000000000e-001 5.7333899034441e+001
1.7200000000000e-001 5.7204920317402e+001
1.7400000000000e-001 5.7076469032482e+001
1.7600000000000e-001 5.6948543612546e+001
1.7800000000000e-001 5.6821142494247e+001
1.8000000000000e-001 5.6694264118030e+001
1.8200000000000e-001 5.6567906928128e+001
1.8400000000000e-001 5.6442069372565e+001
1.8600000000000e-001 5.6316749903155e+001
1.8800000000000e-001 5.6191946975502e+001
1.9000000000000e-001 5.6067659048998e+001
1.9200000000000e-001 5.5943884586828e+001
1.9400000000000e-001 5.5820622055964e+001
1.9600000000000e-001 5.5697869927171e+001
1.9800000000000e-001 5.5575626675001e+001
2.0000000000000e-001 5.5453890777797e+001
2.0200000000000e-001 5.5332660717693e+001
2.0400000000000e-001 5.5211934980610e+001
2.0600000000000e-001 5.5091712056263e+001
2.0800000000000e-001 5.4971990438154e+001
2.1000000000000e-001 5.4852768623576e+001
2.1200000000000e-001 5.4734045113611e+001
2.1400000000000e-001 5.4615818413132e+001
2.1600000000000e-001 5.4498087030801e+001
2.1800000000000e-001 5.4380849479071e+001
2.2000000000000e-001 5.4264104274183e+001
2.2200000000000e-001 5.4147849936171e+001
2.2400000000000e-001 5.4032084988856e+001
2.2600000000000e-001 5.3916807959850e+001
2.2800000000000e-001 5.3802017380555e+001
2.3000000000000e-001 5.3687711786164e+001
2.3200000000000e-001 5.3573889715657e+001
2.3400000000000e-001 5.3460549711807e+001
2.3600000000000e-001 5.3347690321175e+001
2.3800000000000e-001 5.3235310094113e+001
2.4000000000000e-001 5.3123407584761e+001
2.4200000000000e-001 5.3011981351053e+001
2.4400000000000e-001 5.2901029954708e+001
2.4600000000000e-001 5.2790551961238e+001
2.4800000000000e-001 5.2680545939944e+001
2.5000000000000e-001 5.2571010463917e+001
2.5200000000000e-001 5.2461944110038e+001
2.5400000000000e-001 5.2353345458978e+001
2.5600000000000e-001 5.2245213095198e+001
2.5800000000000e-001 5.2137545606948e+001
2.6000000000000e-001 5.2030341586269e+001
2.6200000000000e-001 5.1923599628991e+001
2.6400000000000e-001 5.1817318334736e+001
2.6600000000000e-001 5.1711496306912e+001
2.6800000000000e-001 5.1606132152721e+001
2.7000000000000e-001 5.1501224483153e+001
2.7200000000000e-001 5.1396771912987e+001
2.7400000000000e-001 5.1292773060794e+001
2.7600000000000e-001 5.1189226548934e+001
2.7800000000000e-001 5.1086131003556e+001
2.8000000000000e-001 5.0983485054601e+001
2.8200000000000e-001 5.0881287335797e+001
2.8400000000000e-001 5.0779536484665e+001
2.8600000000000e-001 5.0678231142514e+001
2.8800000000000e-001 5.0577369954443e+001
2.9000000000000e-001 5.0476951569342e+001
2.9200000000000e-001 5.0376974639889e+001
2.9400000000000e-001 5.0277437822555e+001
2.9600000000000e-001 5.0178339777598e+001
2.9800000000000e-001 5.0079679169067e+001
3.0000000000000e-001 4.9981454664801e+001
3.0200000000000e-001 4.9883664936429e+001
3.0400000000000e-001 4.9786308659369e+001
3.0600000000000e-001 4.9689384512831e+001
3.0800000000000e-001 4.9592891179812e+001
3.1000000000000e-001 4.9496827347101e+001
3.1200000000000e-001 4.9401191705277e+001
3.1400000000000e-001 4.9305982948707e+001
3.1600000000000e-001 4.9211199775551e+001
3.1800000000000e-001 4.9116840887756e+001
3.2000000000000e-001 4.9022904991059e+001
3.2200000000000e-001 4.8929390794990e+001
3.2400000000000e-001 4.8836297012866e+001
3.2600000000000e-001 4.8743622361794e+001
3.2800000000000e-001 4.8651365562673e+001
3.3000000000000e-001 4.8559525340190e+001
3.3200000000000e-001 4.8468100422822e+001
3.3400000000000e-001 4.8377089542837e+001
3.3600000000000e-001 4.8286491436292e+001
3.3800000000000e-001 4.8196304843035e+001
3.4000000000000e-001 4.8106528506702e+001
3.4200000000000e-001 4.8017161174721e+001
3.4400000000000e-001 4.7928201598309e+001
3.4600000000000e-001 4.7839648532472e+001
3.4800000000000e-001 4.7751500736008e+001
3.5000000000000e-001 4.7663756971502e+001
3.5200000000000e-001 4.7576416005332e+001
3.5400000000000e-001 4.7489476607665e+001
3.5600000000000e-001 4.7402937552456e+001
3.5800000000000e-001 4.7316797617452e+001
3.6000000000000e-001 4.7231055584190e+001
3.6200000000000e-001 4.7145710237995e+001
3.6400000000000e-001 4.7060760367983e+001
3.6600000000000e-001 4.6976204767062e+001
3.6800000000000e-001 4.6892042231926e+001
3.7000000000000e-001 4.6808271563061e+001
3.7200000000000e-001 4.6724891564744e+001
3.7400000000000e-001 4.6641901045039e+001
3.7600000000000e-001 4.6559298815803e+001
3.7800000000000e-001 4.6477083692681e+001
3.8000000000000e-001 4.6395254495108e+001
3.8200000000000e-001 4.6313810046309e+001
3.8400000000000e-001 4.6232749173301e+001
3.8600000000000e-001 4.6152070706888e+001
3.8800000000000e-001 4.6071773481664e+001
3.9000000000000e-001 4.5991856336016e+001
3.9200000000000e-001 4.5912318112117e+001
3.9400000000000e-001 4.5833157655934e+001
3.9600000000000e-001 4.5754373817219e+001
3.9800000000000e-001 4.5675965449519e+001
4.0000000000000e-001 4.5597931410167e+001
4.0200000000000e-001 4.5520270560288e+001
4.0400000000000e-001 4.5442981764796e+001
4.0600000000000e-001 4.5366063892396e+001
4.0800000000000e-001 4.5289515815581e+001
4.1000000000000e-001 4.5213336410637e+001
4.1200000000000e-001 4.5137524557636e+001
4.1400000000000e-001 4.5062079140443e+001
4.1600000000000e-001 4.4986999046711e+001
4.1800000000000e-001 4.4912283167885e+001
4.2000000000000e-001 4.4837930399197e+001
4.2200000000000e-001 4.4763939639672e+001
4.2400000000000e-001 4.4690309792122e+001
4.2600000000000e-001 4.4617039763152e+001
4.2800000000000e-001 4.4544128463155e+001
4.3000000000000e-001 4.4471574806313e+001
4.3200000000000e-001 4.4399377710600e+001
4.3400000000000e-001 4.4327536097779e+001
4.3600000000000e-001 4.4256048893403e+001
4.3800000000000e-001 4.4184915026814e+001
4.4000000000000e-001 4.4114133431146e+001
4.4200000000000e-001 4.4043703043321e+001
4.4400000000000e-001 4.3973622804051e+001
4.4600000000000e-001 4.3903891657840e+001
4.4800000000000e-001 4.3834508552979e+001
4.5000000000000e-001 4.3765472441551e+001
4.5200000000000e-001 4.3696782279428e+001
4.5400000000000e-001 4.3628437026273e+001
4.5600000000000e-001 4.3560435645536e+001
4.5800000000000e-001 4.3492777104461e+001
4.6000000000000e-001 4.3425460374079e+001
4.6200000000000e-001 4.3358484429212e+001
4.6400000000000e-001 4.3291848248471e+001
4.6600000000000e-001 4.3225550814259e+001
4.6800000000000e-001 4.3159591112766e+001
4.7000000000000e-001 4.3093968133974e+001
4.7200000000000e-001 4.3028680871655e+001
4.7400000000000e-001 4.2963728323370e+001
4.7600000000000e-001 4.2899109490470e+001
4.7800000000000e-001 4.2834823378096e+001
4.8000000000000e-001 4.2770868995178e+001
4.8200000000000e-001 4.2707245354439e+001
4.8400000000000e-001 4.2643951472388e+001
4.8600000000000e-001 4.2580986369327e+001
4.8800000000000e-001 4.2518349069346e+001
4.9000000000000e-001 4.2456038600325e+001
4.9200000000000e-001 4.2394053993936e+001
4.9400000000000e-001 4.2332394285638e+001
4.9600000000000e-001 4.2271058514682e+001
4.9800000000000e-001 4.2210045724108e+001
5.0000000000000e-001 4.2149354960746e+001
5.0200000000000e-001 4.2088985275217e+001
5.0400000000000e-001 4.2028935721929e+001
5.0600000000000e-001 4.1969205359084e+001
5.0800000000000e-001 4.1909793248670e+001
5.1000000000000e-001 4.1850698456467e+001
5.1200000000000e-001 4.1791920052046e+001
5.1400000000000e-001 4.1733457108765e+001
5.1600000000000e-001 4.1675308703774e+001
5.1800000000000e-001 4.1617473918013e+001
5.2000000000000e-001 4.1559951836210e+001
5.2200000000000e-001 4.1502741546884e+001
5.2400000000000e-001 4.1445842142346e+001
5.2600000000000e-001 4.1389252718693e+001
5.2800000000000e-001 4.1332972375815e+001
5.3000000000000e-001 4.1277000217391e+001
5.3200000000000e-001 4.1221335350888e+001
5.3400000000000e-001 4.1165976887567e+001
5.3600000000000e-001 4.1110923942475e+001
5.3800000000000e-001 4.1056175634451e+001
5.4000000000000e-001 4.1001731086124e+001
5.4200000000000e-001 4.0947589423911e+001
5.4400000000000e-001 4.0893749778021e+001
5.4600000000000e-001 4.0840211282452e+001
5.4800000000000e-001 4.0786973074992e+001
5.5000000000000e-001 4.0734034297219e+001
5.5200000000000e-001 4.0681394094501e+001
5.5400000000000e-001 4.0629051615996e+001
5.5600000000000e-001 4.0577006014651e+001
5.5800000000000e-001 4.0525256447205e+001
5.6000000000000e-001 4.0473802074184e+001
5.6200000000000e-001 4.0422642059906e+001
5.6400000000000e-001 4.0371775572478e+001
5.6600000000000e-001 4.0321201783798e+001
5.6800000000000e-001 4.0270919869553e+001
5.7000000000000e-001 4.0220929009220e+001
5.7200000000000e-001 4.0171228386067e+001
5.7400000000000e-001 4.0121817187149e+001
5.7600000000000e-001 4.0072694603314e+001
5.7800000000000e-001 4.0023859829199e+001
5.8000000000000e-001 3.9975312063231e+001
5.8200000000000e-001 3.9927050507626e+001
5.8400000000000e-001 3.9879074368390e+001
5.8600000000000e-001 3.9831382855320e+001
5.8800000000000e-001 3.9783975182003e+001
5.9000000000000e-001 3.9736850565815e+001
5.9200000000000e-001 3.9690008227921e+001
5.9400000000000e-001 3.9643447393279e+001
5.9600000000000e-001 3.9597167290634e+001
5.9800000000000e-001 3.9551167152522e+001
6.0000000000000e-001 3.9505446215270e+001
6.0200000000000e-001 3.9460003718992e+001
6.0400000000000e-001 3.9414838907594e+001
6.0600000000000e-001 3.9369951028773e+001
6.0800000000000e-001 3.9325339334014e+001
6.1000000000000e-001 3.9281003078592e+001
6.1200000000000e-001 3.9236941521573e+001
6.1400000000000e-001 3.9193153925812e+001
6.1600000000000e-001 3.9149639557954e+001
6.1800000000000e-001 3.9106397688435e+001
6.2000000000000e-001 3.9063427591479e+001
6.2200000000000e-001 3.9020728545102e+001
6.2400000000000e-001 3.8978299831109e+001
6.2600000000000e-001 3.8936140735093e+001
6.2800000000000e-001 3.8894250546441e+001
6.3000000000000e-001 3.8852628558327e+001
6.3200000000000e-001 3.8811274067716e+001
6.3400000000000e-001 3.8770186375361e+001
6.3600000000000e-001 3.8729364785808e+001
6.3800000000000e-001 3.8688808607391e+001
6.4000000000000e-001 3.8648517152234e+001
6.4200000000000e-001 3.8608489736251e+001
6.4400000000000e-001 3.8568725679147e+001
6.4600000000000e-001 3.8529224304416e+001
6.4800000000000e-001 3.8489984939342e+001
6.5000000000000e-001 3.8451006914998e+001
6.5200000000000e-001 3.8412289566248e+001
6.5400000000000e-001 3.8373832231747e+001
6.5600000000000e-001 3.8335634253938e+001
6.5800000000000e-001 3.8297694979055e+001
6.6000000000000e-001 3.8260013757120e+001
6.6200000000000e-001 3.8222589941949e+001
6.6400000000000e-001 3.8185422891143e+001
6.6600000000000e-001 3.8148511966097e+001
6.6800000000000e-001 3.8111856531994e+001
6.7000000000000e-001 3.8075455957806e+001
6.7200000000000e-001 3.8039309616298e+001
6.7400000000000e-001 3.8003416884021e+001
6.7600000000000e-001 3.7967777141320e+001
6.7800000000000e-001 3.7932389772326e+001
6.8000000000000e-001 3.7897254164964e+001
6.8200000000000e-001 3.7862369710944e+001
6.8400000000000e-001 3.7827735805771e+001
6.8600000000000e-001 3.7793351848737e+001
6.8800000000000e-001 3.7759217242924e+001
6.9000000000000e-001 3.7725331395205e+001
6.9200000000000e-001 3.7691693716242e+001
6.9400000000000e-001 3.7658303620488e+001
6.9600000000000e-001 3.7625160526184e+001
6.9800000000000e-001 3.7592263855364e+001
7.0000000000000e-001 3.7559613033848e+001
7.0200000000000e-001 3.7527207491250e+001
7.0400000000000e-001 3.7495046660971e+001
7.0600000000000e-001 3.7463129980204e+001
7.0800000000000e-001 3.7431456889929e+001
7.1000000000000e-001 3.7400026834919e+001
7.1200000000000e-001 3.7368839263735e+001
7.1400000000000e-001 3.7337893628730e+001
7.1600000000000e-001 3.7307189386044e+001
7.1800000000000e-001 3.7276725995610e+001
7.2000000000000e-001 3.7246502921148e+001
7.2200000000000e-001 3.7216519630170e+001
7.2400000000000e-001 3.7186775593978e+001
7.2600000000000e-001 3.7157270287662e+001
7.2800000000000e-001 3.7128003190105e+001
7.3000000000000e-001 3.7098973783976e+001
7.3200000000000e-001 3.7070181555737e+001
7.3400000000000e-001 3.7041625995640e+001
7.3600000000000e-001 3.7013306597724e+001
7.3800000000000e-001 3.6985222859821e+001
7.4000000000000e-001 3.6957374283552e+001
7.4200000000000e-001 3.6929760374328e+001
7.4400000000000e-001 3.6902380641348e+001
7.4600000000000e-001 3.6875234597604e+001
7.4800000000000e-001 3.6848321759877e+001
7.5000000000000e-001 3.6821641648736e+001
7.5200000000000e-001 3.6795193788543e+001
7.5400000000000e-001 3.6768977707447e+001
7.5600000000000e-001 3.6742992937389e+001
7.5800000000000e-001 3.6717239014100e+001
7.6000000000000e-001 3.6691715477098e+001
7.6200000000000e-001 3.6666421869696e+001
7.6400000000000e-001 3.6641357738992e+001
7.6600000000000e-001 3.6616522635876e+001
7.6800000000000e-001 3.6591916115030e+001
7.7000000000000e-001 3.6567537734921e+001
7.7200000000000e-001 3.6543387057812e+001
7.7400000000000e-001 3.6519463649750e+001
7.7600000000000e-001 3.6495767080576e+001
7.7800000000000e-001 3.6472296923920e+001
7.8000000000000e-001 3.6449052757201e+001
7.8200000000000e-001 3.6426034161629e+001
7.8400000000000e-001 3.6403240722203e+001
7.8600000000000e-001 3.6380672027713e+001
7.8800000000000e-001 3.6358327670738e+001
7.9000000000000e-001 3.6336207247648e+001
7.9200000000000e-001 3.6314310358601e+001
7.9400000000000e-001 3.6292636607548e+001
7.9600000000000e-001 3.6271185602226e+001
7.9800000000000e-001 3.6249956954166e+001
8.0000000000000e-001 3.6228950278687e+001
8.0200000000000e-001 3.6208165194896e+001
8.0400000000000e-001 3.6187601325695e+001
8.0600000000000e-001 3.6167258297770e+001
8.0800000000000e-001 3.6147135741602e+001
8.1000000000000e-001 3.6127233291459e+001
8.1200000000000e-001 3.6107550585399e+001
8.1400000000000e-001 3.6088087265273e+001
8.1600000000000e-001 3.6068842976717e+001
8.1800000000000e-001 3.6049817369161e+001
8.2000000000000e-001 3.6031010095823e+001
8.2200000000000e-001 3.6012420813712e+001
8.2400000000000e-001 3.5994049183627e+001
8.2600000000000e-001 3.5975894870155e+001
8.2800000000000e-001 3.5957957541676e+001
8.3000000000000e-001 3.5940236870356e+001
8.3200000000000e-001 3.5922732532156e+001
8.3400000000000e-001 3.5905444206822e+001
8.3600000000000e-001 3.5888371577894e+001
8.3800000000000e-001 3.5871514332699e+001
8.4000000000000e-001 3.5854872162355e+001
8.4200000000000e-001 3.5838444761770e+001
8.4400000000000e-001 3.5822231829643e+001
8.4600000000000e-001 3.5806233068461e+001
8.4800000000000e-001 3.5790448184502e+001
8.5000000000000e-001 3.5774876887834e+001
8.5200000000000e-001 3.5759518892315e+001
8.5400000000000e-001 3.5744373915593e+001
8.5600000000000e-001 3.5729441679105e+001
8.5800000000000e-001 3.5714721908078e+001
8.6000000000000e-001 3.5700214331532e+001
8.6200000000000e-001 3.5685918682273e+001
8.6400000000000e-001 3.5671834696898e+001
8.6600000000000e-001 3.5657962115795e+001
8.6800000000000e-001 3.5644300683143e+001
8.7000000000000e-001 3.5630850146907e+001
8.7200000000000e-001 3.5617610258846e+001
8.7400000000000e-001 3.5604580774507e+001
8.7600000000000e-001 3.5591761453226e+001
8.7800000000000e-001 3.5579152058132e+001
8.8000000000000e-001 3.5566752356142e+001
8.8200000000000e-001 3.5554562117962e+001
8.8400000000000e-001 3.5542581118090e+001
8.8600000000000e-001 3.5530809134813e+001
8.8800000000000e-001 3.5519245950208e+001
8.9000000000000e-001 3.5507891350142e+001
8.9200000000000e-001 3.5496745124272e+001
8.9400000000000e-001 3.5485807066044e+001
8.9600000000000e-001 3.5475076972696e+001
8.9800000000000e-001 3.5464554645255e+001
9.0000000000000e-001 3.5454239888537e+001
9.0200000000000e-001 3.5444132511149e+001
9.0400000000000e-001 3.5434232325488e+001
9.0600000000000e-001 3.5424539147741e+001
9.0800000000000e-001 3.5415052797884e+001
9.1000000000000e-001 3.5405773099683e+001
9.1200000000000e-001 3.5396699880696e+001
9.1400000000000e-001 3.5387832972269e+001
9.1600000000000e-001 3.5379172209538e+001
9.1800000000000e-001 3.5370717431430e+001
9.2000000000000e-001 3.5362468480661e+001
9.2200000000000e-001 3.5354425203738e+001
9.2400000000000e-001 3.5346587450957e+001
9.2600000000000e-001 3.5338955076404e+001
9.2800000000000e-001 3.5331527937956e+001
9.3000000000000e-001 3.5324305897278e+001
9.3200000000000e-001 3.5317288819828e+001
9.3400000000000e-001 3.5310476574851e+001
9.3600000000000e-001 3.5303869035383e+001
9.3800000000000e-001 3.5297466078251e+001
9.4000000000000e-001 3.5291267584070e+001
9.4200000000000e-001 3.5285273437247e+001
9.4400000000000e-001 3.5279483525977e+001
9.4600000000000e-001 3.5273897742247e+001
9.4800000000000e-001 3.5268515981832e+001
9.5000000000000e-001 3.5263338144299e+001
9.5200000000000e-001 3.5258364133002e+001
9.5400000000000e-001 3.5253593855089e+001
9.5600000000000e-001 3.5249027221495e+001
9.5800000000000e-001 3.5244664146945e+001
9.6000000000000e-001 3.5240504549955e+001
9.6200000000000e-001 3.5236548352831e+001
9.6400000000000e-001 3.5232795481669e+001
9.6600000000000e-001 3.5229245866353e+001
9.6800000000000e-001 3.5225899440561e+001
9.7000000000000e-001 3.5222756141757e+001
9.7200000000000e-001 3.5219815911197e+001
9.7400000000000e-001 3.5217078693926e+001
9.7600000000000e-001 3.5214544438780e+001
9.7800000000000e-001 3.5212213098384e+001
9.8000000000000e-001 3.5210084629153e+001
9.8200000000000e-001 3.5208158991294e+001
9.8400000000000e-001 3.5206436148800e+001
9.8600000000000e-001 3.5204916069459e+001
9.8800000000000e-001 3.5203598724843e+001
9.9000000000000e-001 3.5202484090320e+001
9.9200000000000e-001 3.5201572145044e+001
9.9400000000000e-001 3.5200862871961e+001
9.9600000000000e-001 3.5200356257804e+001
9.9800000000000e-001 3.5200052293101e+001
1.0000000000000e+000 3.5199950972164e+001
1.0020000000000e+000 3.5200052293101e+001
1.0040000000000e+000 3.5200356257804e+001
1.0060000000000e+000 3.5200862871961e+001
1.0080000000000e+000 3.5201572145044e+001
1.0100000000000e+000 3.5202484090320e+001
1.0120000000000e+000 3.5203598724844e+001
1.0140000000000e+000 3.5204916069459e+001
1.0160000000000e+000 3.5206436148800e+001
1.0180000000000e+000 3.5208158991294e+001
1.0200000000000e+000 3.5210084629153e+001
1.0220000000000e+000 3.5212213098384e+001
1.0240000000000e+000 3.5214544438780e+001
1.0260000000000e+000 3.5217078693926e+001
1.0280000000000e+000 3.5219815911197e+001
1.0300000000000e+000 3.5222756141757e+001
1.0320000000000e+000 3.5225899440561e+001
1.0340000000000e+000 3.5229245866353e+001
1.0360000000000e+000 3.5232795481669e+001
1.0380000000000e+000 3.5236548352831e+001
1.0400000000000e+000 3.5240504549955e+001
1.0420000000000e+000 3.5244664146945e+001
1.0440000000000e+000 3.5249027221495e+001
1.0460000000000e+000 3.5253593855089e+001
1.0480000000000e+000 3.5258364133002e+001
1.0500000000000e+000 3.5263338144299e+001
1.0520000000000e+000 3.5268515981832e+001
1.0540000000000e+000 3.5273897742247e+001
1.0560000000000e+000 3.5279483525977e+001
1.0580000000000e+000 3.5285273437247e+001
1.0600000000000e+000 3.5291267584070e+001
1.0620000000000e+000 3.5297466078251e+001
1.0640000000000e+000 3.5303869035383e+001
1.0660000000000e+000 3.5310476574851e+001
1.0680000000000e+000 3.5317288819828e+001
1.0700000000000e+000 3.5324305897278e+001
1.0720000000000e+000 3.5331527937956e+001
1.0740000000000e+000 3.5338955076404e+001
1.0760000000000e+000 3.5346587450957e+001
1.0780000000000e+000 3.5354425203738e+001
1.0800000000000e+000 3.5362468480661e+001
1.0820000000000e+000 3.5370717431430e+001
1.0840000000000e+000 3.5379172209538e+001
1.0860000000000e+000 3.5387832972269e+001
1.0880000000000e+000 3.5396699880696e+001
1.0900000000000e+000 3.5405773099683e+001
1.0920000000000e+000 3.5415052797884e+001
1.0940000000000e+000 3.5424539147741e+001
1.0960000000000e+000 3.5434232325488e+001
1.0980000000000e+000 3.5444132511149e+001
1.1000000000000e+000 3.5454239888537e+001
1.1020000000000e+000 3.5464554645255e+001
1.1040000000000e+000 3.5475076972696e+001
1.1060000000000e+000 3.5485807066044e+001
1.1080000000000e+000 3.5496745124272e+001
1.1100000000000e+000 3.5507891350142e+001
1.1120000000000e+000 3.5519245950208e+001
1.1140000000000e+000 3.5530809134813e+001
1.1160000000000e+000 3.5542581118090e+001
1.1180000000000e+000 3.5554562117962e+001
1.1200000000000e+000 3.5566752356142e+001
1.1220000000000e+000 3.5579152058132e+001
1.1240000000000e+000 3.5591761453226e+001
1.1260000000000e+000 3.5604580774507e+001
1.1280000000000e+000 3.5617610258846e+001
1.1300000000000e+000 3.5630850146907e+001
1.1320000000000e+000 3.5644300683143e+001
1.1340000000000e+000 3.5657962115795e+001
1.1360000000000e+000 3.5671834696898e+001
1.1380000000000e+000 3.5685918682272e+001
1.1400000000000e+000 3.5700214331532e+001
1.1420000000000e+000 3.5714721908078e+001
1.1440000000000e+000 3.5729441679105e+001
1.1460000000000e+000 3.5744373915593e+001
1.1480000000000e+000 3.5759518892315e+001
1.1500000000000e+000 3.5774876887834e+001
1.1520000000000e+000 3.5790448184502e+001
1.1540000000000e+000 3.5806233068461e+001
1.1560000000000e+000 3.5822231829643e+001
1.1580000000000e+000 3.5838444761770e+001
1.1600000000000e+000 3.5854872162355e+001
1.1620000000000e+000 3.5871514332699e+001
1.1640000000000e+000 3.5888371577894e+001
1.1660000000000e+000 3.5905444206822e+001
1.1680000000000e+000 3.5922732532156e+001
1.1700000000000e+000 3.5940236870356e+001
1.1720000000000e+000 3.5957957541676e+001
1.1740000000000e+000 3.5975894870155e+001
1.1760000000000e+000 3.5994049183627e+001
1.1780000000000e+000 3.6012420813712e+001
1.1800000000000e+000 3.6031010095823e+001
1.1820000000000e+000 3.6049817369161e+001
1.1840000000000e+000 3.6068842976717e+001
1.1860000000000e+000 3.6088087265273e+001
1.1880000000000e+000 3.6107550585399e+001
1.1900000000000e+000 3.6127233291459e+001
1.1920000000000e+000 3.6147135741602e+001
1.1940000000000e+000 3.6167258297770e+001
1.1960000000000e+000 3.6187601325695e+001
1.1980000000000e+000 3.6208165194896e+001
1.2000000000000e+000 3.6228950278687e+001
1.2020000000000e+000 3.6249956954166e+001
1.2040000000000e+000 3.6271185602226e+001
1.2060000000000e+000 3.6292636607548e+001
1.2080000000000e+000 3.6314310358601e+001
1.2100000000000e+000 3.6336207247648e+001
1.2120000000000e+000 3.6358327670738e+001
1.2140000000000e+000 3.6380672027713e+001
1.2160000000000e+000 3.6403240722203e+001
1.2180000000000e+000 3.6426034161629e+001
1.2200000000000e+000 3.6449052757201e+001
1.2220000000000e+000 3.6472296923920e+001
1.2240000000000e+000 3.6495767080576e+001
1.2260000000000e+000 3.6519463649750e+001
1.2280000000000e+000 3.6543387057812e+001
1.2300000000000e+000 3.6567537734921e+001
1.2320000000000e+000 3.6591916115030e+001
1.2340000000000e+000 3.6616522635876e+001
1.2360000000000e+000 3.6641357738992e+001
1.2380000000000e+000 3.6666421869696e+001
1.2400000000000e+000 3.6691715477098e+001
1.2420000000000e+000 3.6717239014100e+001
1.2440000000000e+000 3.6742992937389e+001
1.2460000000000e+000 3.6768977707447e+001
1.2480000000000e+000 3.6795193788543e+001
1.2500000000000e+000 3.6821641648736e+001
1.2520000000000e+000 3.6848321759877e+001
1.2540000000000e+000 3.6875234597604e+001
1.2560000000000e+000 3.6902380641348e+001
1.2580000000000e+000 3.6929760374328e+001
1.2600000000000e+000 3.6957374283552e+001
1.2620000000000e+000 3.6985222859821e+001
1.2640000000000e+000 3.7013306597724e+001
1.2660000000000e+000 3.7041625995640e+001
1.2680000000000e+000 3.7070181555737e+001
1.2700000000000e+000 3.7098973783976e+001
1.2720000000000e+000 3.7128003190105e+001
1.2740000000000e+000 3.7157270287662e+001
1.2760000000000e+000 3.7186775593978e+001
1.2780000000000e+000 3.7216519630170e+001
1.2800000000000e+000 3.7246502921148e+001
1.2820000000000e+000 3.7276725995610e+001
1.2840000000000e+000 3.7307189386044e+001
1.2860000000000e+000 3.7337893628730e+001
1.2880000000000e+000 3.7368839263735e+001
1.2900000000000e+000 3.7400026834919e+001
1.2920000000000e+000 3.7431456889929e+001
1.2940000000000e+000 3.7463129980204e+001
1.2960000000000e+000 3.7495046660971e+001
1.2980000000000e+000 3.7527207491250e+001
1.3000000000000e+000 3.7559613033848e+001
1.3020000000000e+000 3.7592263855364e+001
1.3040000000000e+000 3.7625160526184e+001
1.3060000000000e+000 3.7658303620488e+001
1.3080000000000e+000 3.7691693716242e+001
1.3100000000000e+000 3.7725331395205e+001
1.3120000000000e+000 3.7759217242924e+001
1.3140000000000e+000 3.7793351848737e+001
1.3160000000000e+000 3.7827735805771e+001
1.3180000000000e+000 3.7862369710944e+001
1.3200000000000e+000 3.7897254164964e+001
1.3220000000000e+000 3.7932389772326e+001
1.3240000000000e+000 3.7967777141320e+001
1.3260000000000e+000 3.8003416884021e+001
1.3280000000000e+000 3.8039309616298e+001
1.3300000000000e+000 3.8075455957806e+001
1.3320000000000e+000 3.8111856531994e+001
1.3340000000000e+000 3.8148511966097e+001
1.3360000000000e+000 3.8185422891143e+001
1.3380000000000e+000 3.8222589941949e+001
1.3400000000000e+000 3.8260013757120e+001
1.3420000000000e+000 3.8297694979055e+001
1.3440000000000e+000 3.8335634253938e+001
1.3460000000000e+000 3.8373832231747e+001
1.3480000000000e+000 3.8412289566248e+001
1.3500000000000e+000 3.8451006914998e+001
1.3520000000000e+000 3.8489984939342e+001
1.3540000000000e+000 3.8529224304416e+001
1.3560000000000e+000 3.8568725679147e+001
1.3580000000000e+000 3.8608489736251e+001
1.3600000000000e+000 3.8648517152234e+001
1.3620000000000e+000 3.8688808607391e+001
1.3640000000000e+000 3.8729364785808e+001
1.3660000000000e+000 3.8770186375361e+001
1.3680000000000e+000 3.8811274067716e+001
1.3700000000000e+000 3.8852628558327e+001
1.3720000000000e+000 3.8894250546441e+001
1.3740000000000e+000 3.8936140735093e+001
1.3760000000000e+000 3.8978299831109e+001
1.3780000000000e+000 3.9020728545102e+001
1.3800000000000e+000 3.9063427591479e+001
1.3820000000000e+000 3.9106397688435e+001
1.3840000000000e+000 3.9149639557954e+001
1.3860000000000e+000 3.9193153925812e+001
1.3880000000000e+000 3.9236941521573e+001
1.3900000000000e+000 3.9281003078592e+001
1.3920000000000e+000 3.9325339334014e+001
1.3940000000000e+000 3.9369951028773e+001
1.3960000000000e+000 3.9414838907594e+001
1.3980000000000e+000 3.9460003718992e+001
1.4000000000000e+000 3.9505446215270e+001
1.4020000000000e+000 3.9551167152522e+001
1.4040000000000e+000 3.9597167290634e+001
1.4060000000000e+000 3.9643447393279e+001
1.4080000000000e+000 3.9690008227921e+001
1.4100000000000e+000 3.9736850565815e+001
1.4120000000000e+000 3.9783975182003e+001
1.4140000000000e+000 3.9831382855320e+001
1.4160000000000e+000 3.9879074368390e+001
1.4180000000000e+000 3.9927050507626e+001
1.4200000000000e+000 3.9975312063231e+001
1.4220000000000e+000 4.0023859829199e+001