TITLE = "FUNC"
VARIABLES = "X", "F"
ZONE I=1001, F=POINT
0.0000000000000e+000 4.8474647645372e+000
2.0000000000000e-003 4.7634726619348e+000
4.0000000000000e-003 4.6792189830279e+000
6.0000000000000e-003 4.5947291006854e+000
8.0000000000000e-003 4.5099350436238e+000
1.0000000000000e-002 4.4247726043953e+000
1.2000000000000e-002 4.3391812998459e+000
1.4000000000000e-002 4.2531043308124e+000
1.6000000000000e-002 4.1664885418705e+000
1.8000000000000e-002 4.0792843814419e+000
2.0000000000000e-002 3.9914458622374e+000
2.2000000000000e-002 3.9029305218228e+000
2.4000000000000e-002 3.8136993830065e+000
2.6000000000000e-002 3.7237169137361e+000
2.8000000000000e-002 3.6329509862217e+000
3.0000000000000e-002 3.5413728350420e+000
3.2000000000000e-002 3.4489570140548e+000
3.4000000000000e-002 3.3556813519794e+000
3.6000000000000e-002 3.2615269065610e+000
3.8000000000000e-002 3.1664779172706e+000
4.0000000000000e-002 3.0705217565137e+000
4.2000000000000e-002 2.9736488793544e+000
4.4000000000000e-002 2.8758527717596e+000
4.6000000000000e-002 2.7771298973954e+000
4.8000000000000e-002 2.6774796430050e+000
5.0000000000000e-002 2.5769042624048e+000
5.2000000000000e-002 2.4754088191437e+000
5.4000000000000e-002 2.3730011278648e+000
5.6000000000000e-002 2.2696916944163e+000
5.8000000000000e-002 2.1654936547570e+000
6.0000000000000e-002 2.0604227127072e+000
6.2000000000000e-002 1.9544970765885e+000
6.4000000000000e-002 1.8477373948064e+000
6.6000000000000e-002 1.7401666904219e+000
6.8000000000000e-002 1.6318102947678e+000
7.0000000000000e-002 1.5226957801522e+000
7.2000000000000e-002 1.4128528917126e+000
7.4000000000000e-002 1.3023134784624e+000
7.6000000000000e-002 1.1911114235906e+000
7.8000000000000e-002 1.0792825740652e+000
8.0000000000000e-002 9.6686466959128e-001
8.2000000000000e-002 8.5389727098439e-001
8.4000000000000e-002 7.4042168801158e-001
8.6000000000000e-002 6.2648090674866e-001
8.8000000000000e-002 5.1211951652141e-001
9.0000000000000e-002 3.9738363647412e-001
9.2000000000000e-002 2.8232084183077e-001
9.4000000000000e-002 1.6698008989602e-001
9.6000000000000e-002 5.1411645858757e-002
9.8000000000000e-002 -6.4332991550398e-002
1.0000000000000e-001 -1.8020116448914e-001
1.0200000000000e-001 -2.9613913046833e-001
1.0400000000000e-001 -4.1209213679516e-001
1.0600000000000e-001 -5.2800449493762e-001
1.0800000000000e-001 -6.4381965475724e-001
1.1000000000000e-001 -7.5948027855810e-001
1.1200000000000e-001 -8.7492831489100e-001
1.1400000000000e-001 -9.9010507206876e-001
1.1600000000000e-001 -1.1049512913299e+000
1.1800000000000e-001 -1.2194072196060e+000
1.2000000000000e-001 -1.3334126818338e+000
1.2200000000000e-001 -1.4469071527687e+000
1.2400000000000e-001 -1.5598298282408e+000
1.2600000000000e-001 -1.6721196958107e+000
1.2800000000000e-001 -1.7837156047708e+000
1.3000000000000e-001 -1.8945563354453e+000
1.3200000000000e-001 -2.0045806677470e+000
1.3400000000000e-001 -2.1137274489328e+000
1.3600000000000e-001 -2.2219356605253e+000
1.3800000000000e-001 -2.3291444843480e+000
1.4000000000000e-001 -2.4352933676316e+000
1.4200000000000e-001 -2.5403220871546e+000
1.4400000000000e-001 -2.6441708123673e+000
1.4600000000000e-001 -2.7467801674709e+000
1.4800000000000e-001 -2.8480912924019e+000
1.5000000000000e-001 -2.9480459026920e+000
1.5200000000000e-001 -3.0465863481637e+000
1.5400000000000e-001 -3.1436556704261e+000
1.5600000000000e-001 -3.2391976591388e+000
1.5800000000000e-001 -3.3331569070104e+000
1.6000000000000e-001 -3.4254788635012e+000
1.6200000000000e-001 -3.5161098871985e+000
1.6400000000000e-001 -3.6049972968384e+000
1.6600000000000e-001 -3.6920894209453e+000
1.6800000000000e-001 -3.7773356460649e+000
1.7000000000000e-001 -3.8606864635637e+000
1.7200000000000e-001 -3.9420935149773e+000
1.7400000000000e-001 -4.0215096358797e+000
1.7600000000000e-001 -4.0988888982598e+000
1.7800000000000e-001 -4.1741866513818e+000
1.8000000000000e-001 -4.2473595611148e+000
1.8200000000000e-001 -4.3183656477171e+000
1.8400000000000e-001 -4.3871643220575e+000
1.8600000000000e-001 -4.4537164202659e+000
1.8800000000000e-001 -4.5179842367967e+000
1.9000000000000e-001 -4.5799315558993e+000
1.9200000000000e-001 -4.6395236814865e+000
1.9400000000000e-001 -4.6967274653911e+000
1.9600000000000e-001 -4.7515113340106e+000
1.9800000000000e-001 -4.8038453133311e+000
2.0000000000000e-001 -4.8537010523303e+000
2.0200000000000e-001 -4.9010518447585e+000
2.0400000000000e-001 -4.9458726492952e+000
2.0600000000000e-001 -4.9881401080882e+000
2.0800000000000e-001 -5.0278325636716e+000
2.1000000000000e-001 -5.0649300742715e+000
2.1200000000000e-001 -5.0994144275051e+000
2.1400000000000e-001 -5.1312691524755e+000
2.1600000000000e-001 -5.1604795302760e+000
2.1800000000000e-001 -5.1870326029103e+000
2.2000000000000e-001 -5.2109171806396e+000
2.2200000000000e-001 -5.2321238477685e+000
2.2400000000000e-001 -5.2506449668830e+000
2.2600000000000e-001 -5.2664746815548e+000
2.2800000000000e-001 -5.2796089175274e+000
2.3000000000000e-001 -5.2900453823992e+000
2.3200000000000e-001 -5.2977835638227e+000
2.3400000000000e-001 -5.3028247262382e+000
2.3600000000000e-001 -5.3051719061602e+000
2.3800000000000e-001 -5.3048299060380e+000
2.4000000000000e-001 -5.3018052867122e+000
2.4200000000000e-001 -5.2961063584893e+000
2.4400000000000e-001 -5.2877431708571e+000
2.4600000000000e-001 -5.2767275008669e+000
2.4800000000000e-001 -5.2630728402039e+000
2.5000000000000e-001 -5.2467943809760e+000
2.5200000000000e-001 -5.2279090002446e+000
2.5400000000000e-001 -5.2064352433248e+000
2.5600000000000e-001 -5.1823933058845e+000
2.5800000000000e-001 -5.1558050148698e+000
2.6000000000000e-001 -5.1266938082860e+000
2.6200000000000e-001 -5.0950847138637e+000
2.6400000000000e-001 -5.0610043266414e+000
2.6600000000000e-001 -5.0244807854954e+000
2.6800000000000e-001 -4.9855437486457e+000
2.7000000000000e-001 -4.9442243681729e+000
2.7200000000000e-001 -4.9005552635775e+000
2.7400000000000e-001 -4.8545704944118e+000
2.7600000000000e-001 -4.8063055320215e+000
2.7800000000000e-001 -4.7557972304250e+000
2.8000000000000e-001 -4.7030837963681e+000
2.8200000000000e-001 -4.6482047585857e+000
2.8400000000000e-001 -4.5912009363046e+000
2.8600000000000e-001 -4.5321144070212e+000
2.8800000000000e-001 -4.4709884735889e+000
2.9000000000000e-001 -4.4078676306483e+000
2.9200000000000e-001 -4.3427975304359e+000
2.9400000000000e-001 -4.2758249480032e+000
2.9600000000000e-001 -4.2069977458839e+000
2.9800000000000e-001 -4.1363648382397e+000
3.0000000000000e-001 -4.0639761545216e+000
3.0200000000000e-001 -3.9898826026787e+000
3.0400000000000e-001 -3.9141360319508e+000
3.0600000000000e-001 -3.8367891952754e+000
3.0800000000000e-001 -3.7578957113450e+000
3.1000000000000e-001 -3.6775100263481e+000
3.1200000000000e-001 -3.5956873754241e+000
3.1400000000000e-001 -3.5124837438688e+000
3.1600000000000e-001 -3.4279558281202e+000
3.1800000000000e-001 -3.3421609965572e+000
3.2000000000000e-001 -3.2551572501439e+000
3.2200000000000e-001 -3.1670031829500e+000
3.2400000000000e-001 -3.0777579425781e+000
3.2600000000000e-001 -2.9874811905295e+000
3.2800000000000e-001 -2.8962330625380e+000
3.3000000000000e-001 -2.8040741289003e+000
3.3200000000000e-001 -2.7110653548338e+000
3.3400000000000e-001 -2.6172680608900e+000
3.3600000000000e-001 -2.5227438834501e+000
3.3800000000000e-001 -2.4275547353322e+000
3.4000000000000e-001 -2.3317627665363e+000
3.4200000000000e-001 -2.2354303251528e+000
3.4400000000000e-001 -2.1386199184614e+000
3.4600000000000e-001 -2.0413941742452e+000
3.4800000000000e-001 -1.9438158023433e+000
3.5000000000000e-001 -1.8459475564681e+000
3.5200000000000e-001 -1.7478521963080e+000
3.5400000000000e-001 -1.6495924499398e+000
3.5600000000000e-001 -1.5512309765723e+000
3.5800000000000e-001 -1.4528303296419e+000
3.6000000000000e-001 -1.3544529202804e+000
3.6200000000000e-001 -1.2561609811759e+000
3.6400000000000e-001 -1.1580165308456e+000
3.6600000000000e-001 -1.0600813383371e+000
3.6800000000000e-001 -9.6241688837928e-001
3.7000000000000e-001 -8.6508434699623e-001
3.7200000000000e-001 -7.6814452760265e-001
3.7400000000000e-001 -6.7165785759571e-001
3.7600000000000e-001 -5.7568434545779e-001
3.7800000000000e-001 -4.8028354838395e-001
3.8000000000000e-001 -3.8551454044938e-001
3.8200000000000e-001 -2.9143588132594e-001
3.8400000000000e-001 -1.9810558556388e-001
3.8600000000000e-001 -1.0558109244629e-001
3.8800000000000e-001 -1.3919236428739e-002
3.9000000000000e-001 7.6823781825941e-002
3.9200000000000e-001 1.6659242381001e-001
3.9400000000000e-001 2.5533184092091e-001
3.9600000000000e-001 3.4298790159112e-001
3.9800000000000e-001 4.2950721779197e-001
4.0000000000000e-001 5.1483717090334e-001
4.0200000000000e-001 5.9892593694516e-001
4.0400000000000e-001 6.8172251116455e-001
4.0600000000000e-001 7.6317673197401e-001
4.0800000000000e-001 8.4323930423824e-001
4.1000000000000e-001 9.2186182190412e-001
4.1200000000000e-001 9.9899678997351e-001
4.1400000000000e-001 1.0745976458146e+000
4.1600000000000e-001 1.1486187798126e+000
4.1800000000000e-001 1.2210155553561e+000
4.2000000000000e-001 1.2917443281618e+000
4.2200000000000e-001 1.3607624649346e+000
4.2400000000000e-001 1.4280283613661e+000
4.2600000000000e-001 1.4935014594703e+000
4.2800000000000e-001 1.5571422642610e+000
4.3000000000000e-001 1.6189123597692e+000
4.3200000000000e-001 1.6787744244062e+000
4.3400000000000e-001 1.7366922456732e+000
4.3600000000000e-001 1.7926307342209e+000
4.3800000000000e-001 1.8465559372643e+000
4.4000000000000e-001 1.8984350513533e+000
4.4200000000000e-001 1.9482364345065e+000
4.4400000000000e-001 1.9959296177121e+000
4.4600000000000e-001 2.0414853157988e+000
4.4800000000000e-001 2.0848754376841e+000
4.5000000000000e-001 2.1260730960049e+000
4.5200000000000e-001 2.1650526161345e+000
4.5400000000000e-001 2.2017895445941e+000
4.5600000000000e-001 2.2362606568630e+000
4.5800000000000e-001 2.2684439645946e+000
4.6000000000000e-001 2.2983187222442e+000
4.6200000000000e-001 2.3258654331149e+000
4.6400000000000e-001 2.3510658548294e+000
4.6600000000000e-001 2.3739030042325e+000
4.6800000000000e-001 2.3943611617321e+000
4.7000000000000e-001 2.4124258750863e+000
4.7200000000000e-001 2.4280839626410e+000
4.7400000000000e-001 2.4413235160281e+000
4.7600000000000e-001 2.4521339023284e+000
4.7800000000000e-001 2.4605057657076e+000
4.8000000000000e-001 2.4664310285319e+000
4.8200000000000e-001 2.4699028919695e+000
4.8400000000000e-001 2.4709158360854e+000
4.8600000000000e-001 2.4694656194366e+000
4.8800000000000e-001 2.4655492781717e+000
4.9000000000000e-001 2.4591651246450e+000
4.9200000000000e-001 2.4503127455483e+000
4.9400000000000e-001 2.4389929995691e+000
4.9600000000000e-001 2.4252080145789e+000
4.9800000000000e-001 2.4089611843590e+000
5.0000000000000e-001 2.3902571648695e+000
5.0200000000000e-001 2.3691018700665e+000
5.0400000000000e-001 2.3455024672723e+000
5.0600000000000e-001 2.3194673721057e+000
5.0800000000000e-001 2.2910062429755e+000
5.1000000000000e-001 2.2601299751429e+000
5.1200000000000e-001 2.2268506943561e+000
5.1400000000000e-001 2.1911817500637e+000
5.1600000000000e-001 2.1531377082091e+000
5.1800000000000e-001 2.1127343436099e+000
5.2000000000000e-001 2.0699886319266e+000
5.2200000000000e-001 2.0249187412240e+000
5.2400000000000e-001 1.9775440231274e+000
5.2600000000000e-001 1.9278850035782e+000
5.2800000000000e-001 1.8759633731896e+000
5.3000000000000e-001 1.8218019772075e+000
5.3200000000000e-001 1.7654248050750e+000
5.3400000000000e-001 1.7068569796070e+000
5.3600000000000e-001 1.6461247457730e+000
5.3800000000000e-001 1.5832554590912e+000
5.4000000000000e-001 1.5182775736359e+000
5.4200000000000e-001 1.4512206296579e+000
5.4400000000000e-001 1.3821152408195e+000
5.4600000000000e-001 1.3109930810458e+000
5.4800000000000e-001 1.2378868709904e+000
5.5000000000000e-001 1.1628303641196e+000
5.5200000000000e-001 1.0858583324112e+000
5.5400000000000e-001 1.0070065516724e+000
5.5600000000000e-001 9.2631178647234e-001
5.5800000000000e-001 8.4381177469256e-001
5.6000000000000e-001 7.5954521169447e-001
5.6200000000000e-001 6.7355173410194e-001
5.6400000000000e-001 5.8587190320081e-001
5.6600000000000e-001 4.9654718795239e-001
5.6800000000000e-001 4.0561994762406e-001
5.7000000000000e-001 3.1313341403300e-001
5.7200000000000e-001 2.1913167340359e-001
5.7400000000000e-001 1.2365964784006e-001
5.7600000000000e-001 2.6763076410863e-002
5.7800000000000e-001 -7.1511504153798e-002
5.8000000000000e-001 -1.7111677915149e-001
5.8200000000000e-001 -2.7200467598554e-001
5.8400000000000e-001 -3.7412638463008e-001
5.8600000000000e-001 -4.7743237848352e-001
5.8800000000000e-001 -5.8187243560870e-001
5.9000000000000e-001 -6.8739566036136e-001
5.9200000000000e-001 -7.9395050540448e-001
5.9400000000000e-001 -9.0148479410829e-001
5.9600000000000e-001 -1.0099457433357e+000
5.9800000000000e-001 -1.1192799866108e+000
6.0000000000000e-001 -1.2294335976686e+000
6.0200000000000e-001 -1.3403521143868e+000
6.0400000000000e-001 -1.4519805630929e+000
6.0600000000000e-001 -1.5642634832492e+000
6.0800000000000e-001 -1.6771449525076e+000
6.1000000000000e-001 -1.7905686121354e+000
6.1200000000000e-001 -1.9044776928056e+000
6.1400000000000e-001 -2.0188150407485e+000
6.1600000000000e-001 -2.1335231442613e+000
6.1800000000000e-001 -2.2485441605676e+000
6.2000000000000e-001 -2.3638199430240e+000
6.2200000000000e-001 -2.4792920686672e+000
6.2400000000000e-001 -2.5949018660954e+000
6.2600000000000e-001 -2.7105904436748e+000
6.2800000000000e-001 -2.8262987180672e+000
6.3000000000000e-001 -2.9419674430679e+000
6.3200000000000e-001 -3.0575372387460e+000
6.3400000000000e-001 -3.1729486208797e+000
6.3600000000000e-001 -3.2881420306716e+000
6.3800000000000e-001 -3.4030578647415e+000
6.4000000000000e-001 -3.5176365053782e+000
6.4200000000000e-001 -3.6318183510430e+000
6.4400000000000e-001 -3.7455438471119e+000
6.4600000000000e-001 -3.8587535168420e+000
6.4800000000000e-001 -3.9713879925520e+000
6.5000000000000e-001 -4.0833880469977e+000
6.5200000000000e-001 -4.1946946249341e+000
6.5400000000000e-001 -4.3052488748427e+000
6.5600000000000e-001 -4.4149921808114e+000
6.5800000000000e-001 -4.5238661945506e+000
6.6000000000000e-001 -4.6318128675261e+000
6.6200000000000e-001 -4.7387744831929e+000
6.6400000000000e-001 -4.8446936893105e+000
6.6600000000000e-001 -4.9495135303207e+000
6.6800000000000e-001 -5.0531774797692e+000
6.7000000000000e-001 -5.1556294727489e+000
6.7200000000000e-001 -5.2568139383459e+000
6.7400000000000e-001 -5.3566758320659e+000
6.7600000000000e-001 -5.4551606682198e+000
6.7800000000000e-001 -5.5522145522447e+000
6.8000000000000e-001 -5.6477842129393e+000
6.8200000000000e-001 -5.7418170345883e+000
6.8400000000000e-001 -5.8342610889535e+000
6.8600000000000e-001 -5.9250651671066e+000
6.8800000000000e-001 -6.0141788110783e+000
6.9000000000000e-001 -6.1015523453006e+000
6.9200000000000e-001 -6.1871369078136e+000
6.9400000000000e-001 -6.2708844812145e+000
6.9600000000000e-001 -6.3527479233192e+000
6.9800000000000e-001 -6.4326809975128e+000
7.0000000000000e-001 -6.5106384027609e+000
7.0200000000000e-001 -6.5865758032541e+000
7.0400000000000e-001 -6.6604498576606e+000
7.0600000000000e-001 -6.7322182479576e+000
7.0800000000000e-001 -6.8018397078150e+000
7.1000000000000e-001 -6.8692740505034e+000
7.1200000000000e-001 -6.9344821963001e+000
7.1400000000000e-001 -6.9974261993630e+000
7.1600000000000e-001 -7.0580692740476e+000
7.1800000000000e-001 -7.1163758206375e+000
7.2000000000000e-001 -7.1723114504625e+000
7.2200000000000e-001 -7.2258430103756e+000
7.2400000000000e-001 -7.2769386065626e+000
7.2600000000000e-001 -7.3255676276580e+000
7.2800000000000e-001 -7.3717007671389e+000
7.3000000000000e-001 -7.4153100449723e+000
7.3200000000000e-001 -7.4563688284889e+000
7.3400000000000e-001 -7.4948518524578e+000
7.3600000000000e-001 -7.5307352383374e+000
7.3800000000000e-001 -7.5639965126773e+000
7.4000000000000e-001 -7.5946146246474e+000
7.4200000000000e-001 -7.6225699626707e+000
7.4400000000000e-001 -7.6478443701355e+000
7.4600000000000e-001 -7.6704211601669e+000
7.4800000000000e-001 -7.6902851294331e+000
7.5000000000000e-001 -7.7074225709680e+000
7.5200000000000e-001 -7.7218212859881e+000
7.5400000000000e-001 -7.7334705946846e+000
7.5600000000000e-001 -7.7423613459730e+000
7.5800000000000e-001 -7.7484859261805e+000
7.6000000000000e-001 -7.7518382666561e+000
7.6200000000000e-001 -7.7524138502871e+000
7.6400000000000e-001 -7.7502097169054e+000
7.6600000000000e-001 -7.7452244675716e+000
7.6800000000000e-001 -7.7374582677230e+000
7.7000000000000e-001 -7.7269128491736e+000
7.7200000000000e-001 -7.7135915109554e+000
7.7400000000000e-001 -7.6974991189906e+000
7.7600000000000e-001 -7.6786421045887e+000
7.7800000000000e-001 -7.6570284617563e+000
7.8000000000000e-001 -7.6326677433184e+000
7.8200000000000e-001 -7.6055710558435e+000
7.8400000000000e-001 -7.5757510533689e+000
7.8600000000000e-001 -7.5432219299249e+000
7.8800000000000e-001 -7.5079994108544e+000
7.9000000000000e-001 -7.4701007429309e+000
7.9200000000000e-001 -7.4295446832734e+000
7.9400000000000e-001 -7.3863514870633e+000
7.9600000000000e-001 -7.3405428940653e+000
7.9800000000000e-001 -7.2921421139576e+000
8.0000000000000e-001 -7.2411738104802e+000
8.0200000000000e-001 -7.1876640844063e+000
8.0400000000000e-001 -7.1316404553488e+000
8.0600000000000e-001 -7.0731318424091e+000
8.0800000000000e-001 -7.0121685436842e+000
8.1000000000000e-001 -6.9487822146415e+000
8.1200000000000e-001 -6.8830058453780e+000
8.1400000000000e-001 -6.8148737367790e+000
8.1600000000000e-001 -6.7444214755944e+000
8.1800000000000e-001 -6.6716859084485e+000
8.2000000000000e-001 -6.5967051148058e+000
8.2200000000000e-001 -6.5195183789120e+000
8.2400000000000e-001 -6.4401661607322e+000
8.2600000000000e-001 -6.3586900659111e+000
8.2800000000000e-001 -6.2751328147780e+000
8.3000000000000e-001 -6.1895382104227e+000
8.3200000000000e-001 -6.1019511058691e+000
8.3400000000000e-001 -6.0124173703762e+000
8.3600000000000e-001 -5.9209838548906e+000
8.3800000000000e-001 -5.8276983566866e+000
8.4000000000000e-001 -5.7326095832198e+000
8.4200000000000e-001 -5.6357671152288e+000
8.4400000000000e-001 -5.5372213691170e+000
8.4600000000000e-001 -5.4370235586484e+000
8.4800000000000e-001 -5.3352256559926e+000
8.5000000000000e-001 -5.2318803521519e+000
8.5200000000000e-001 -5.1270410168102e+000
8.5400000000000e-001 -5.0207616576382e+000
8.5600000000000e-001 -4.9130968790936e+000
8.5800000000000e-001 -4.8041018407530e+000
8.6000000000000e-001 -4.6938322152163e+000
8.6200000000000e-001 -4.5823441456204e+000
8.6400000000000e-001 -4.4696942028044e+000
8.6600000000000e-001 -4.3559393421677e+000
8.6800000000000e-001 -4.2411368602550e+000
8.7000000000000e-001 -4.1253443511164e+000
8.7200000000000e-001 -4.0086196624817e+000
8.7400000000000e-001 -3.8910208517884e+000
8.7600000000000e-001 -3.7726061421067e+000
8.7800000000000e-001 -3.6534338780034e+000
8.8000000000000e-001 -3.5335624813873e+000
8.8200000000000e-001 -3.4130504073733e+000
8.8400000000000e-001 -3.2919561002163e+000
8.8600000000000e-001 -3.1703379493475e+000
8.8800000000000e-001 -3.0482542455578e+000
8.9000000000000e-001 -2.9257631373747e+000
8.9200000000000e-001 -2.8029225876661e+000
8.9400000000000e-001 -2.6797903305169e+000
8.9600000000000e-001 -2.5564238284195e+000
8.9800000000000e-001 -2.4328802298137e+000
9.0000000000000e-001 -2.3092163270239e+000
9.0200000000000e-001 -2.1854885146250e+000
9.0400000000000e-001 -2.0617527482805e+000
9.0600000000000e-001 -1.9380645040898e+000
9.0800000000000e-001 -1.8144787384834e+000
9.1000000000000e-001 -1.6910498487016e+000
9.1200000000000e-001 -1.5678316338945e+000
9.1400000000000e-001 -1.4448772568788e+000
9.1600000000000e-001 -1.3222392065857e+000
9.1800000000000e-001 -1.1999692612340e+000
9.2000000000000e-001 -1.0781184522626e+000
9.2200000000000e-001 -9.5673702905552e-001
9.2400000000000e-001 -8.3587442448529e-001
9.2600000000000e-001 -7.1557922131660e-001
9.2800000000000e-001 -5.9589911948632e-001
9.3000000000000e-001 -4.7688090429920e-001
9.3200000000000e-001 -3.5857041555998e-001
9.3400000000000e-001 -2.4101251767306e-001
9.3600000000000e-001 -1.2425107073133e-001
9.3800000000000e-001 -8.3289026217015e-003
9.4000000000000e-001 1.0671221783309e-001
9.4200000000000e-001 2.2083160667019e-001
9.4400000000000e-001 3.3398968950238e-001
9.4600000000000e-001 4.4614802513332e-001
9.4800000000000e-001 5.5726932805267e-001
9.5000000000000e-001 6.6731748979487e-001
9.5200000000000e-001 7.7625759914657e-001
9.5400000000000e-001 8.8405596118579e-001
9.5600000000000e-001 9.9068011513836e-001
9.5800000000000e-001 1.0960988510461e+000
9.6000000000000e-001 1.2002822252244e+000
9.6200000000000e-001 1.3032015745109e+000
9.6400000000000e-001 1.4048295292894e+000
9.6600000000000e-001 1.5051400252825e+000
9.6800000000000e-001 1.6041083141100e+000
9.7000000000000e-001 1.7017109726059e+000
9.7200000000000e-001 1.7979259108898e+000
9.7400000000000e-001 1.8927323791929e+000
9.7600000000000e-001 1.9861109734340e+000
9.7800000000000e-001 2.0780436395496e+000
9.8000000000000e-001 2.1685136765749e+000
9.8200000000000e-001 2.2575057384832e+000
9.8400000000000e-001 2.3450058347806e+000
9.8600000000000e-001 2.4310013298696e+000
9.8800000000000e-001 2.5154809411780e+000
9.9000000000000e-001 2.5984347360691e+000
9.9200000000000e-001 2.6798541275351e+000
9.9400000000000e-001 2.7597318686839e+000
9.9600000000000e-001 2.8380620460333e+000
9.9800000000000e-001 2.9148400716211e+000
1.0000000000000e+000 2.9900626739426e+000
1.0020000000000e+000 3.0637278877316e+000
1.0040000000000e+000 3.1358350425980e+000
1.0060000000000e+000 3.2063847505381e+000
1.0080000000000e+000 3.2753788923326e+000
1.0100000000000e+000 3.3428206028514e+000
1.0120000000000e+000 3.4087142552827e+000
1.0140000000000e+000 3.4730654443043e+000
1.0160000000000e+000 3.5358809682187e+000
1.0180000000000e+000 3.5971688100731e+000
1.0200000000000e+000 3.6569381177836e+000
1.0220000000000e+000 3.7151991832881e+000
1.0240000000000e+000 3.7719634207495e+000
1.0260000000000e+000 3.8272433438344e+000
1.0280000000000e+000 3.8810525420900e+000
1.0300000000000e+000 3.9334056564468e+000
1.0320000000000e+000 3.9843183538705e+000
1.0340000000000e+000 4.0338073011901e+000
1.0360000000000e+000 4.0818901381308e+000
1.0380000000000e+000 4.1285854495771e+000
1.0400000000000e+000 4.1739127370951e+000
1.0420000000000e+000 4.2178923897426e+000
1.0440000000000e+000 4.2605456541970e+000
1.0460000000000e+000 4.3018946042281e+000
1.0480000000000e+000 4.3419621095485e+000
1.0500000000000e+000 4.3807718040695e+000
1.0520000000000e+000 4.4183480535952e+000
1.0540000000000e+000 4.4547159229844e+000
1.0560000000000e+000 4.4899011428136e+000
1.0580000000000e+000 4.5239300755698e+000
1.0600000000000e+000 4.5568296814091e+000
1.0620000000000e+000 4.5886274835083e+000
1.0640000000000e+000 4.6193515330473e+000
1.0660000000000e+000 4.6490303738512e+000
1.0680000000000e+000 4.6776930067256e+000
1.0700000000000e+000 4.7053688535212e+000
1.0720000000000e+000 4.7320877209553e+000
1.0740000000000e+000 4.7578797642278e+000
1.0760000000000e+000 4.7827754504643e+000
1.0780000000000e+000 4.8068055220183e+000
1.0800000000000e+000 4.8300009596674e+000
1.0820000000000e+000 4.8523929457356e+000
1.0840000000000e+000 4.8740128271765e+000
1.0860000000000e+000 4.8948920786507e+000
1.0880000000000e+000 4.9150622656294e+000
1.0900000000000e+000 4.9345550075601e+000
1.0920000000000e+000 4.9534019411239e+000
1.0940000000000e+000 4.9716346836223e+000
1.0960000000000e+000 4.9892847965219e+000
1.0980000000000e+000 5.0063837491939e+000
1.1000000000000e+000 5.0229628828773e+000
1.1020000000000e+000 5.0390533749025e+000
1.1040000000000e+000 5.0546862032030e+000
1.1060000000000e+000 5.0698921111516e+000
1.1080000000000e+000 5.0847015727499e+000
1.1100000000000e+000 5.0991447582037e+000
1.1120000000000e+000 5.1132514999163e+000
1.1140000000000e+000 5.1270512589294e+000
1.1160000000000e+000 5.1405730918426e+000
1.1180000000000e+000 5.1538456182422e+000
1.1200000000000e+000 5.1668969886690e+000
1.1220000000000e+000 5.1797548531539e+000
1.1240000000000e+000 5.1924463303506e+000
1.1260000000000e+000 5.2049979772957e+000
1.1280000000000e+000 5.2174357598208e+000
1.1300000000000e+000 5.2297850236483e+000
1.1320000000000e+000 5.2420704661947e+000
1.1340000000000e+000 5.2543161091092e+000
1.1360000000000e+000 5.2665452715759e+000
1.1380000000000e+000 5.2787805444000e+000
1.1400000000000e+000 5.2910437649086e+000
1.1420000000000e+000 5.3033559926855e+000
1.1440000000000e+000 5.3157374861675e+000
1.1460000000000e+000 5.3282076801225e+000
1.1480000000000e+000 5.3407851640324e+000
1.1500000000000e+000 5.3534876614036e+000
1.1520000000000e+000 5.3663320100240e+000
1.1540000000000e+000 5.3793341431881e+000
1.1560000000000e+000 5.3925090719088e+000
1.1580000000000e+000 5.4058708681341e+000
1.1600000000000e+000 5.4194326489883e+000
1.1620000000000e+000 5.4332065620511e+000
1.1640000000000e+000 5.4472037716946e+000
1.1660000000000e+000 5.4614344464905e+000
1.1680000000000e+000 5.4759077477021e+000
1.1700000000000e+000 5.4906318188766e+000
1.1720000000000e+000 5.5056137765466e+000
1.1740000000000e+000 5.5208597020549e+000
1.1760000000000e+000 5.5363746345124e+000
1.1780000000000e+000 5.5521625648973e+000
1.1800000000000e+000 5.5682264313061e+000
1.1820000000000e+000 5.5845681153618e+000
1.1840000000000e+000 5.6011884397862e+000
1.1860000000000e+000 5.6180871671429e+000
1.1880000000000e+000 5.6352629997527e+000
1.1900000000000e+000 5.6527135807868e+000
1.1920000000000e+000 5.6704354965379e+000
1.1940000000000e+000 5.6884242798710e+000
1.1960000000000e+000 5.7066744148540e+000
1.1980000000000e+000 5.7251793425646e+000
1.2000000000000e+000 5.7439314680738e+000
1.2020000000000e+000 5.7629221685989e+000
1.2040000000000e+000 5.7821418028243e+000
1.2060000000000e+000 5.8015797213805e+000
1.2080000000000e+000 5.8212242784773e+000
1.2100000000000e+000 5.8410628446793e+000
1.2120000000000e+000 5.8610818208171e+000
1.2140000000000e+000 5.8812666530199e+000
1.2160000000000e+000 5.9016018488604e+000
1.2180000000000e+000 5.9220709945960e+000
1.2200000000000e+000 5.9426567734934e+000
1.2220000000000e+000 5.9633409852196e+000
1.2240000000000e+000 5.9841045662832e+000
1.2260000000000e+000 6.0049276115069e+000
1.2280000000000e+000 6.0257893965118e+000
1.2300000000000e+000 6.0466684011942e+000
1.2320000000000e+000 6.0675423341707e+000
1.2340000000000e+000 6.0883881581717e+000
1.2360000000000e+000 6.1091821163557e+000
1.2380000000000e+000 6.1298997595226e+000
1.2400000000000e+000 6.1505159741974e+000
1.2420000000000e+000 6.1710050115575e+000
1.2440000000000e+000 6.1913405171754e+000
1.2460000000000e+000 6.2114955615474e+000
1.2480000000000e+000 6.2314426713766e+000
1.2500000000000e+000 6.2511538615804e+000
1.2520000000000e+000 6.2706006679880e+000
1.2540000000000e+000 6.2897541806964e+000
1.2560000000000e+000 6.3085850780488e+000
1.2580000000000e+000 6.3270636612011e+000
1.2600000000000e+000 6.3451598892400e+000
1.2620000000000e+000 6.3628434148160e+000
1.2640000000000e+000 6.3800836202535e+000
1.2660000000000e+000 6.3968496540991e+000
1.2680000000000e+000 6.4131104680695e+000
1.2700000000000e+000 6.4288348543593e+000
1.2720000000000e+000 6.4439914832668e+000
1.2740000000000e+000 6.4585489410993e+000
1.2760000000000e+000 6.4724757683138e+000
1.2780000000000e+000 6.4857404978520e+000
1.2800000000000e+000 6.4983116936281e+000
1.2820000000000e+000 6.5101579891250e+000
1.2840000000000e+000 6.5212481260561e+000
1.2860000000000e+000 6.5315509930503e+000
1.2880000000000e+000 6.5410356643139e+000
1.2900000000000e+000 6.5496714382283e+000
1.2920000000000e+000 6.5574278758376e+000
1.2940000000000e+000 6.5642748391817e+000
1.2960000000000e+000 6.5701825294334e+000
1.2980000000000e+000 6.5751215247897e+000
1.3000000000000e+000 6.5790628180801e+000
1.3020000000000e+000 6.5819778540421e+000
1.3040000000000e+000 6.5838385662233e+000
1.3060000000000e+000 6.5846174134658e+000
1.3080000000000e+000 6.5842874159290e+000
1.3100000000000e+000 6.5828221906075e+000
1.3120000000000e+000 6.5801959863037e+000
1.3140000000000e+000 6.5763837180109e+000
1.3160000000000e+000 6.5713610006659e+000
1.3180000000000e+000 6.5651041822302e+000
1.3200000000000e+000 6.5575903760593e+000
1.3220000000000e+000 6.5487974925209e+000
1.3240000000000e+000 6.5387042698224e+000
1.3260000000000e+000 6.5272903040099e+000
1.3280000000000e+000 6.5145360781012e+000
1.3300000000000e+000 6.5004229903167e+000
1.3320000000000e+000 6.4849333813720e+000
1.3340000000000e+000 6.4680505607981e+000
1.3360000000000e+000 6.4497588322561e+000
1.3380000000000e+000 6.4300435178134e+000
1.3400000000000e+000 6.4088909811497e+000
1.3420000000000e+000 6.3862886496638e+000
1.3440000000000e+000 6.3622250354529e+000
1.3460000000000e+000 6.3366897551332e+000
1.3480000000000e+000 6.3096735484804e+000
1.3500000000000e+000 6.2811682958623e+000
1.3520000000000e+000 6.2511670344393e+000
1.3540000000000e+000 6.2196639731132e+000
1.3560000000000e+000 6.1866545062010e+000
1.3580000000000e+000 6.1521352258156e+000
1.3600000000000e+000 6.1161039329369e+000
1.3620000000000e+000 6.0785596471534e+000
1.3640000000000e+000 6.0395026150623e+000
1.3660000000000e+000 5.9989343173168e+000
1.3680000000000e+000 5.9568574743060e+000
1.3700000000000e+000 5.9132760504581e+000
1.3720000000000e+000 5.8681952571590e+000
1.3740000000000e+000 5.8216215542818e+000
1.3760000000000e+000 5.7735626503196e+000
1.3780000000000e+000 5.7240275011188e+000
1.3800000000000e+000 5.6730263072139e+000
1.3820000000000e+000 5.6205705097591e+000
1.3840000000000e+000 5.5666727850647e+000
1.3860000000000e+000 5.5113470377375e+000
1.3880000000000e+000 5.4546083924315e+000
1.3900000000000e+000 5.3964731842172e+000
1.3920000000000e+000 5.3369589475789e+000
1.3940000000000e+000 5.2760844040476e+000
1.3960000000000e+000 5.2138694484830e+000
1.3980000000000e+000 5.1503351340200e+000
1.4000000000000e+000 5.0855036556925e+000
1.4020000000000e+000 5.0193983327524e+000
1.4040000000000e+000 4.9520435897039e+000
1.4060000000000e+000 4.8834649360702e+000
1.4080000000000e+000 4.8136889449183e+000